
 Distributed Data Interface kickoff program.
 Initiating 12 compute processes on 1 nodes to run the following command:
 /home/jluis/pkgs/gamess/gamess.14i.x ref 

          ******************************************************
          *         GAMESS VERSION =  5 DEC 2014 (R1)          *
          *             FROM IOWA STATE UNIVERSITY             *
          * M.W.SCHMIDT, K.K.BALDRIDGE, J.A.BOATZ, S.T.ELBERT, *
          *   M.S.GORDON, J.H.JENSEN, S.KOSEKI, N.MATSUNAGA,   *
          *          K.A.NGUYEN, S.J.SU, T.L.WINDUS,           *
          *       TOGETHER WITH M.DUPUIS, J.A.MONTGOMERY       *
          *         J.COMPUT.CHEM.  14, 1347-1363(1993)        *
          **************** 64 BIT INTEL VERSION ****************

  SINCE 1993, STUDENTS AND POSTDOCS WORKING AT IOWA STATE UNIVERSITY
  AND ALSO IN THEIR VARIOUS JOBS AFTER LEAVING ISU HAVE MADE IMPORTANT
  CONTRIBUTIONS TO THE CODE:
     IVANA ADAMOVIC, CHRISTINE AIKENS, YURI ALEXEEV, POOJA ARORA,
     ANDREY ASADCHEV, ROB BELL, PRADIPTA BANDYOPADHYAY, JONATHAN BENTZ,
     BRETT BODE, KURT BRORSEN, CALEB CARLIN, GALINA CHABAN, WEI CHEN,
     CHEOL HO CHOI, PAUL DAY, ALBERT DEFUSCO, NUWAN DESILVA, TIM DUDLEY,
     DMITRI FEDOROV, GRAHAM FLETCHER, MARK FREITAG, KURT GLAESEMANN,
     DAN KEMP, GRANT MERRILL, NORIYUKI MINEZAWA, JONATHAN MULLIN,
     TAKESHI NAGATA, SEAN NEDD, HEATHER NETZLOFF, BOSILJKA NJEGIC, RYAN OLSON,
     MIKE PAK, SPENCER PRUITT, LUKE ROSKOP, JIM SHOEMAKER, LYUDMILA SLIPCHENKO,
     TONY SMITH, SAROM SOK, JIE SONG, TETSUYA TAKETSUGU, SIMON WEBB,
     PENG XU, SOOHAENG YOO, FEDERICO ZAHARIEV

  ADDITIONAL CODE HAS BEEN PROVIDED BY COLLABORATORS IN OTHER GROUPS:
     IOWA STATE UNIVERSITY:
          JOE IVANIC, AARON WEST, LAIMUTIS BYTAUTAS, KLAUS RUEDENBERG
     UNIVERSITY OF TOKYO: KIMIHIKO HIRAO, TAKAHITO NAKAJIMA,
          TAKAO TSUNEDA, MUNEAKI KAMIYA, SUSUMU YANAGISAWA,
          KIYOSHI YAGI, MAHITO CHIBA, SEIKEN TOKURA, NAOAKI KAWAKAMI
     UNIVERSITY OF AARHUS: FRANK JENSEN
     UNIVERSITY OF IOWA: VISVALDAS KAIRYS, HUI LI
     NATIONAL INST. OF STANDARDS AND TECHNOLOGY: WALT STEVENS, DAVID GARMER
     UNIVERSITY OF PISA: BENEDETTA MENNUCCI, JACOPO TOMASI
     UNIVERSITY OF MEMPHIS: HENRY KURTZ, PRAKASHAN KORAMBATH
     UNIVERSITY OF ALBERTA: TOBY ZENG, MARIUSZ KLOBUKOWSKI
     UNIVERSITY OF NEW ENGLAND: MARK SPACKMAN
     MIE UNIVERSITY: HIROAKI UMEDA
     NAT. INST. OF ADVANCED INDUSTRIAL SCIENCE AND TECHNOLOGY: KAZUO KITAURA
     MICHIGAN STATE UNIVERSITY:
          KAROL KOWALSKI, MARTA WLOCH, JEFFREY GOUR, JESSE LUTZ,
          WEI LI, PIOTR PIECUCH
     UNIVERSITY OF SILESIA: MONIKA MUSIAL, STANISLAW KUCHARSKI
     FACULTES UNIVERSITAIRES NOTRE-DAME DE LA PAIX:
          OLIVIER QUINET, BENOIT CHAMPAGNE
     UNIVERSITY OF CALIFORNIA - SANTA BARBARA: BERNARD KIRTMAN
     INSTITUTE FOR MOLECULAR SCIENCE:
          KAZUYA ISHIMURA, MICHIO KATOUDA, AND SHIGERU NAGASE
     UNIVERSITY OF NOTRE DAME: ANNA POMOGAEVA, DAN CHIPMAN
     KYUSHU UNIVERSITY:
          HARUYUKI NAKANO,
          FENG LONG GU, JACEK KORCHOWIEC, MARCIN MAKOWSKI, AND YURIKO AOKI,
          HIROTOSHI MORI AND EISAKU MIYOSHI
     PENNSYLVANIA STATE UNIVERSITY:
          TZVETELIN IORDANOV, CHET SWALINA, JONATHAN SKONE,
          SHARON HAMMES-SCHIFFER
     WASEDA UNIVERSITY:
          MASATO KOBAYASHI, TOMOKO AKAMA, TSUGUKI TOUMA,
          TAKESHI YOSHIKAWA, YASUHIRO IKABATA, HIROMI NAKAI
     NANJING UNIVERSITY: SHUHUA LI
     UNIVERSITY OF NEBRASKA:
          PEIFENG SU, DEJUN SI, NANDUN THELLAMUREGE, YALI WANG, HUI LI
     UNIVERSITY OF ZURICH: ROBERTO PEVERATI, KIM BALDRIDGE
     N. COPERNICUS UNIVERSITY AND JACKSON STATE UNIVERSITY:
          MARIA BARYSZ
     UNIVERSITY OF COPENHAGEN: CASPER STEINMANN
     TOKYO INSTITUTE OF TECHNOLOGY: HIROYA NAKATA
     NAGOYA UNIVERSITY: YOSHIO NISHIMOTO, STEPHAN IRLE


 PARALLEL VERSION RUNNING ON       12 PROCESSORS IN        1 NODES.

 EXECUTION OF GAMESS BEGUN Mon Dec  3 23:39:54 2018

            ECHO OF THE FIRST FEW INPUT CARDS -
 INPUT CARD> $CONTRL SCFTYP=RHF RUNTYP=ENERGY MAXIT=199 AIMPAC=.TRUE. MULT=1                
 INPUT CARD>  ICUT=16 ITOL=16 QMTTOL=1E-30 ISPHER=1 ICHARG=0 CITYP=ALDET $END               
 INPUT CARD> $SYSTEM MWORDS=380 MEMDDI=320 PARALL=.TRUE. $END                               
 INPUT CARD> $SCF DIRSCF=.FALSE. NCONV=9 FDIFF=.FALSE. DIIS=.TRUE. ETHRSH=2.0               
 INPUT CARD>  SWDIIS=0.005 $END                                                             
 INPUT CARD> $BASIS GBASIS=ACCD $END                                                        
 INPUT CARD> $MCSCF CISTEP=ALDET FULLNR=.TRUE. ACURCY=1E-8 ENGTOL=1E-8                      
 INPUT CARD>  MAXIT=300 MICIT=4 CANONC=.TRUE. FORS=.TRUE. $END                              
 INPUT CARD> $CIDET NCORE=2 NACT=44 NELS=2 NSTATE=3 PRTTOL=1E-1 STSYM=A $END                
 INPUT CARD> $DET NCORE=2 NACT=44 NELS=2 NSTATE=3 PRTTOL=1E-1 STSYM=A $END                  
 INPUT CARD>$GUESS GUESS=MOREAD NORB=146 $END                                               
 INPUT CARD> $DATA                                                                          
 INPUT CARD>Singlete                                                                        
 INPUT CARD>C1                                                                              
 INPUT CARD>Li 3 0.0000  0.0000  0.0000                                                     
 INPUT CARD>Li 3 0.0000  0.0000  2.6500                                                     
 INPUT CARD> $END                                                                           
  380000000 WORDS OF MEMORY AVAILABLE

     BASIS OPTIONS
     -------------
     GBASIS=ACCD         IGAUSS=       0      POLAR=NONE    
     NDFUNC=       0     NFFUNC=       0     DIFFSP=       F
     NPFUNC=       0      DIFFS=       F     BASNAM=        


     RUN TITLE
     ---------
 Singlete                                                                        

 THE POINT GROUP OF THE MOLECULE IS C1      
 THE ORDER OF THE PRINCIPAL AXIS IS     0

 ATOM      ATOMIC                      COORDINATES (BOHR)
           CHARGE         X                   Y                   Z
 LI          3.0     0.0000000000        0.0000000000        0.0000000000
 LI          3.0     0.0000000000        0.0000000000        5.0077738675

          INTERNUCLEAR DISTANCES (ANGS.)
          ------------------------------

                1 LI         2 LI    

   1 LI      0.0000000    2.6500000 *
   2 LI      2.6500000 *  0.0000000  

  * ... LESS THAN  3.000


     ATOMIC BASIS SET
     ----------------
 THE CONTRACTED PRIMITIVE FUNCTIONS HAVE BEEN UNNORMALIZED
 THE CONTRACTED BASIS FUNCTIONS ARE NOW NORMALIZED TO UNITY

  SHELL TYPE  PRIMITIVE        EXPONENT          CONTRACTION COEFFICIENT(S)

 LI        

      1   S       1          1469.0000000    0.000765601232
      1   S       2           220.5000000    0.005888932715
      1   S       3            50.2600000    0.029655553732
      1   S       4            14.2400000    0.109123162563
      1   S       5             4.5810000    0.282641784375
      1   S       6             1.5800000    0.452887111102
      1   S       7             0.5640000    0.274630956861
      1   S       8             0.0734500    0.009745923779

      2   S       9          1469.0000000   -0.000224991961
      2   S      10           220.5000000   -0.001730563167
      2   S      11            50.2600000   -0.008791560880
      2   S      12            14.2400000   -0.033152565467
      2   S      13             4.5810000   -0.091687974012
      2   S      14             1.5800000   -0.180010443274
      2   S      15             0.5640000   -0.255703363785
      2   S      16             0.0734500    1.078277723416

      3   S      17             0.0280500    1.000000000000

      4   P      18             1.5340000    0.038003981035
      4   P      19             0.2749000    0.232032118583
      4   P      20             0.0736200    0.834631408456

      5   P      21             0.0240300    1.000000000000

      6   D      22             0.1144000    1.000000000000

      7   S      23             0.0086000    1.000000000000

      8   P      24             0.0058000    1.000000000000

      9   D      25             0.0733000    1.000000000000

 LI        

     10   S      26          1469.0000000    0.000765601232
     10   S      27           220.5000000    0.005888932715
     10   S      28            50.2600000    0.029655553732
     10   S      29            14.2400000    0.109123162563
     10   S      30             4.5810000    0.282641784375
     10   S      31             1.5800000    0.452887111102
     10   S      32             0.5640000    0.274630956861
     10   S      33             0.0734500    0.009745923779

     11   S      34          1469.0000000   -0.000224991961
     11   S      35           220.5000000   -0.001730563167
     11   S      36            50.2600000   -0.008791560880
     11   S      37            14.2400000   -0.033152565467
     11   S      38             4.5810000   -0.091687974012
     11   S      39             1.5800000   -0.180010443274
     11   S      40             0.5640000   -0.255703363785
     11   S      41             0.0734500    1.078277723416

     12   S      42             0.0280500    1.000000000000

     13   P      43             1.5340000    0.038003981035
     13   P      44             0.2749000    0.232032118583
     13   P      45             0.0736200    0.834631408456

     14   P      46             0.0240300    1.000000000000

     15   D      47             0.1144000    1.000000000000

     16   S      48             0.0086000    1.000000000000

     17   P      49             0.0058000    1.000000000000

     18   D      50             0.0733000    1.000000000000

 TOTAL NUMBER OF BASIS SET SHELLS             =   18
 NUMBER OF CARTESIAN GAUSSIAN BASIS FUNCTIONS =   50
 NOTE: THIS RUN WILL RESTRICT THE MO VARIATION SPACE TO SPHERICAL HARMONICS.
 THE NUMBER OF ORBITALS KEPT IN THE VARIATIONAL SPACE WILL BE PRINTED LATER.
 NUMBER OF ELECTRONS                          =    6
 CHARGE OF MOLECULE                           =    0
 SPIN MULTIPLICITY                            =    1
 NUMBER OF OCCUPIED ORBITALS (ALPHA)          =    3
 NUMBER OF OCCUPIED ORBITALS (BETA )          =    3
 TOTAL NUMBER OF ATOMS                        =    2
 THE NUCLEAR REPULSION ENERGY IS        1.7972057521

 THIS MOLECULE IS RECOGNIZED AS BEING LINEAR,
 ORBITAL LZ DEGENERACY TOLERANCE ETOLLZ= 1.00E-06

     $NEO OPTIONS
     ------------
     NUNIQN=       0     BASNUC=DZSNB        NEOSCF=NONE    
     NEOCI =NONE         NUMULT=       2     NUCST =       1
     NAUXNB=       0     VNUCEX=       F     NUCOPT=       F
     NTAUXB=       0     NEOHSS=       F     HSSINI=READH   
     HSSUPD=POWELLUP     DIRNUC=       F     SYMNUC=       F
     QMTOLN= 0.0E+00     USRDEX=       F
     POSNEO=       F     POSPRP=       F
     NEONCI=       F     LOCORB=       0

     $CONTRL OPTIONS
     ---------------
 SCFTYP=RHF          RUNTYP=ENERGY       EXETYP=RUN     
 MPLEVL=       0     CITYP =ALDET        CCTYP =NONE         VBTYP =NONE    
 DFTTYP=NONE         TDDFT =NONE    
 MULT  =       1     ICHARG=       0     NZVAR =       0     COORD =UNIQUE  
 PP    =NONE         RELWFN=NONE         LOCAL =NONE         NUMGRD=       F
 ISPHER=       1     NOSYM =       0     MAXIT =     199     UNITS =ANGS    
 PLTORB=       F     MOLPLT=       F     AIMPAC=       T     FRIEND=        
 NPRINT=       7     IREST =       0     GEOM  =INPUT   
 NORMF =       0     NORMP =       0     ITOL  =      16     ICUT  =      16
 INTTYP=BEST         GRDTYP=BEST         QMTTOL= 1.0E-30

     $SYSTEM OPTIONS
     ---------------
  REPLICATED MEMORY=   380000000 WORDS (ON EVERY NODE).
 DISTRIBUTED MEMDDI=         320 MILLION WORDS IN AGGREGATE,
 MEMDDI DISTRIBUTED OVER  12 PROCESSORS IS    26666666 WORDS/PROCESSOR.
 TOTAL MEMORY REQUESTED ON EACH PROCESSOR=   406666666 WORDS.
 TIMLIM=      525600.00 MINUTES, OR     365.0 DAYS.
 PARALL= T  BALTYP=  DLB     KDIAG=    0  COREFL= F
 MXSEQ2=     300 MXSEQ3=     150  mem10=         0

          ----------------
          PROPERTIES INPUT
          ----------------

     MOMENTS            FIELD           POTENTIAL          DENSITY
 IEMOM =       1   IEFLD =       0   IEPOT =       0   IEDEN =       0
 WHERE =COMASS     WHERE =NUCLEI     WHERE =NUCLEI     WHERE =NUCLEI  
 OUTPUT=BOTH       OUTPUT=BOTH       OUTPUT=BOTH       OUTPUT=BOTH    
 IEMINT=       0   IEFINT=       0                     IEDINT=       0
                                                       MORB  =       0
          EXTRAPOLATION IN EFFECT
          DIIS IN EFFECT
 ORBITAL PRINTING OPTION: NPREO=     1    50     2     1

     -------------------------------
     INTEGRAL TRANSFORMATION OPTIONS
     -------------------------------
     NWORD  =            0
     CUTOFF = 1.0E-09     MPTRAN =       0
     DIRTRF =       F     AOINTS =DUP     

          ----------------------
          INTEGRAL INPUT OPTIONS
          ----------------------
 NOPK  =       1 NORDER=       0 SCHWRZ=       F

     ------------------------------------------
     THE POINT GROUP IS C1 , NAXIS= 0, ORDER= 1
     ------------------------------------------

 -- VARIATIONAL SPACE WILL BE RESTRICTED TO PURE SPHERICAL HARMONICS ONLY --
 AFTER EXCLUDING CONTAMINANT COMBINATIONS FROM THE CARTESIAN GAUSSIAN BASIS
 SET, THE NUMBER OF SPHERICAL HARMONICS KEPT IN THE VARIATION SPACE IS   46

     DIMENSIONS OF THE SYMMETRY SUBSPACES ARE
 A   =   46

 ..... DONE SETTING UP THE RUN .....
 CPU     0: STEP CPU TIME=     0.01 TOTAL CPU TIME=        0.0 (    0.0 MIN)
 TOTAL WALL CLOCK TIME=        0.1 SECONDS, CPU UTILIZATION IS  14.29%

          ********************
          1 ELECTRON INTEGRALS
          ********************
 ...... END OF ONE-ELECTRON INTEGRALS ......
 CPU     0: STEP CPU TIME=     0.00 TOTAL CPU TIME=        0.0 (    0.0 MIN)
 TOTAL WALL CLOCK TIME=        0.1 SECONDS, CPU UTILIZATION IS   8.33%

          -------------
          GUESS OPTIONS
          -------------
          GUESS =HUCKEL            NORB  =       0          NORDER=       0
          MIX   =       F          PRTMO =       F          PUNMO =       F
          TOLZ  = 1.0E-08          TOLE  = 1.0E-05
          SYMDEN=       F          PURIFY=       F

 INITIAL GUESS ORBITALS GENERATED BY HUCKEL   ROUTINE.
 HUCKEL GUESS REQUIRES     19728 WORDS.

 STATISTICS FOR GENERATION OF SYMMETRY ORBITAL -Q- MATRIX
 NUMBER OF CARTESIAN ATOMIC ORBITALS=         50
 NUMBER OF SPHERICAL CONTAMINANTS DROPPED=     4
 NUMBER OF LINEARLY DEPENDENT MOS DROPPED=     0
 TOTAL NUMBER OF MOS IN VARIATION SPACE=      46

 SYMMETRIES FOR INITIAL GUESS ORBITALS FOLLOW.   BOTH SET(S).
     3 ORBITALS ARE OCCUPIED (    2 CORE ORBITALS).
     3=A        4=A        5=A        6=A        7=A        8=A        9=A   
    10=A       11=A       12=A       13=A   
 ...... END OF INITIAL ORBITAL SELECTION ......
 CPU     0: STEP CPU TIME=     0.00 TOTAL CPU TIME=        0.0 (    0.0 MIN)
 TOTAL WALL CLOCK TIME=        0.1 SECONDS, CPU UTILIZATION IS   8.33%

                    ----------------------
                    AO INTEGRAL TECHNOLOGY
                    ----------------------
     S,P,L SHELL ROTATED AXIS INTEGRALS, REPROGRAMMED BY
        KAZUYA ISHIMURA (IMS) AND JOSE SIERRA (SYNSTAR).
     S,P,D,L SHELL ROTATED AXIS INTEGRALS PROGRAMMED BY
        KAZUYA ISHIMURA (INSTITUTE FOR MOLECULAR SCIENCE).
     S,P,D,F,G SHELL TO TOTAL QUARTET ANGULAR MOMENTUM SUM 5,
        ERIC PROGRAM BY GRAHAM FLETCHER (ELORET AND NASA ADVANCED
        SUPERCOMPUTING DIVISION, AMES RESEARCH CENTER).
     S,P,D,F,G,L SHELL GENERAL RYS QUADRATURE PROGRAMMED BY
        MICHEL DUPUIS (PACIFIC NORTHWEST NATIONAL LABORATORY).

          --------------------
          2 ELECTRON INTEGRALS
          --------------------

 THE -PK- OPTION IS OFF, THE INTEGRALS ARE NOT IN SUPERMATRIX FORM.
 STORING   15000 INTEGRALS/RECORD ON DISK, USING 12 BYTES/INTEGRAL.
 TWO ELECTRON INTEGRAL EVALUATION REQUIRES   90567 WORDS OF MEMORY.
 II,JST,KST,LST =  1  1  1  1 NREC =         1 INTLOC =    1
 II,JST,KST,LST =  2  1  1  1 NREC =         1 INTLOC =    2
 II,JST,KST,LST =  3  1  1  1 NREC =         1 INTLOC =    2
 II,JST,KST,LST =  4  1  1  1 NREC =         1 INTLOC =   12
 II,JST,KST,LST =  5  1  1  1 NREC =         1 INTLOC =   12
 II,JST,KST,LST =  6  1  1  1 NREC =         1 INTLOC =   99
 II,JST,KST,LST =  7  1  1  1 NREC =         1 INTLOC =   99
 II,JST,KST,LST =  8  1  1  1 NREC =         1 INTLOC =  156
 II,JST,KST,LST =  9  1  1  1 NREC =         1 INTLOC =  156
 II,JST,KST,LST = 10  1  1  1 NREC =         1 INTLOC =  240
 II,JST,KST,LST = 11  1  1  1 NREC =         1 INTLOC =  329
 II,JST,KST,LST = 12  1  1  1 NREC =         1 INTLOC = 1660
 II,JST,KST,LST = 13  1  1  1 NREC =         1 INTLOC = 1660
 II,JST,KST,LST = 14  1  1  1 NREC =         1 INTLOC = 3838
 II,JST,KST,LST = 15  1  1  1 NREC =         1 INTLOC = 3838
 II,JST,KST,LST = 16  1  1  1 NREC =         1 INTLOC =11243
 II,JST,KST,LST = 17  1  1  1 NREC =         1 INTLOC =11243
 II,JST,KST,LST = 18  1  1  1 NREC =         1 INTLOC =11243
 TOTAL NUMBER OF NONZERO TWO-ELECTRON INTEGRALS =              208746
         18 INTEGRAL RECORDS WERE STORED ON DISK FILE  8.
  ...... END OF TWO-ELECTRON INTEGRALS .....
 CPU     0: STEP CPU TIME=     0.04 TOTAL CPU TIME=        0.0 (    0.0 MIN)
 TOTAL WALL CLOCK TIME=        0.1 SECONDS, CPU UTILIZATION IS  33.33%

          --------------------------
                 RHF SCF CALCULATION
          --------------------------

     NUCLEAR ENERGY =         1.7972057521
     MAXIT =  199     NPUNCH=    2
     EXTRAP=T  DAMP=F  SHIFT=F  RSTRCT=F  DIIS=T  DEM=F  SOSCF=T
     DENSITY MATRIX CONV=  1.00E-09
     SOSCF WILL OPTIMIZE     129 ORBITAL ROTATIONS, SOGTOL=   0.250
     MEMORY REQUIRED FOR RHF ITERS=     69154 WORDS.

 ITER EX DEM     TOTAL ENERGY        E CHANGE  DENSITY CHANGE     ORB. GRAD
          * * *   INITIATING DIIS PROCEDURE   * * *
   1  0  0      -14.8514912241   -14.8514912241   0.223901070   0.064958571
   2  1  0      -14.8678279255    -0.0163367015   0.032017604   0.015607161
   3  2  0      -14.8694119658    -0.0015840403   0.014353596   0.005464776
   4  3  0      -14.8696492519    -0.0002372861   0.001390040   0.000473177
         SWDIIS THRESHOLD HAS BEEN REACHED: SWITCHING DIIS OFF.
          ---------------START SECOND ORDER SCF---------------
   5  4  0      -14.8696511721    -0.0000019202   0.000207990   0.000054574
   6  5  0      -14.8696512286    -0.0000000564   0.000152567   0.000024678
   7  6  0      -14.8696512419    -0.0000000134   0.000006885   0.000002212
   8  7  0      -14.8696512420    -0.0000000001   0.000004322   0.000000904
   9  8  0      -14.8696512420    -0.0000000000   0.000000191   0.000000038
  10  9  0      -14.8696512420    -0.0000000000   0.000000112   0.000000012
  11 10  0      -14.8696512420    -0.0000000000   0.000000000   0.000000001

          -----------------
          DENSITY CONVERGED
          -----------------
     TIME TO FORM FOCK OPERATORS=       0.0 SECONDS (       0.0 SEC/ITER)
     TIME TO SOLVE SCF EQUATIONS=       0.0 SECONDS (       0.0 SEC/ITER)

 FINAL RHF ENERGY IS      -14.8696512420 AFTER  11 ITERATIONS

 LZ VALUE ANALYSIS FOR THE MOS
 ----------------------------------------
 MO     1 (    1) HAS LZ(WEIGHT)= 0.00(100.0%) 
 MO     2 (    2) HAS LZ(WEIGHT)= 0.00(100.0%) 
 MO     3 (    3) HAS LZ(WEIGHT)= 0.00(100.0%) 
 MO     4 (    4) HAS LZ(WEIGHT)= 0.00(100.0%) 
 MO     5 (    5) HAS LZ(WEIGHT)=-1.00( 50.0%)  1.00( 50.0%) 
 MO     6 (    5) HAS LZ(WEIGHT)=-1.00( 50.0%)  1.00( 50.0%) 
 MO     7 (    6) HAS LZ(WEIGHT)= 0.00(100.0%) 
 MO     8 (    7) HAS LZ(WEIGHT)= 0.00(100.0%) 
 MO     9 (    8) HAS LZ(WEIGHT)=-1.00( 50.0%)  1.00( 50.0%) 
 MO    10 (    8) HAS LZ(WEIGHT)=-1.00( 50.0%)  1.00( 50.0%) 
 MO    11 (    9) HAS LZ(WEIGHT)= 0.00(100.0%) 
 MO    12 (   10) HAS LZ(WEIGHT)=-1.00( 50.0%)  1.00( 50.0%) 
 MO    13 (   10) HAS LZ(WEIGHT)=-1.00( 50.0%)  1.00( 50.0%) 
 MO    14 (   11) HAS LZ(WEIGHT)= 0.00(100.0%) 
 MO    15 (   12) HAS LZ(WEIGHT)= 0.00(100.0%) 
 MO    16 (   13) HAS LZ(WEIGHT)=-1.00( 50.0%)  1.00( 50.0%) 
 MO    17 (   13) HAS LZ(WEIGHT)=-1.00( 50.0%)  1.00( 50.0%) 
 MO    18 (   14) HAS LZ(WEIGHT)= 0.00(100.0%) 
 MO    19 (   15) HAS LZ(WEIGHT)= 0.00(100.0%) 
 MO    20 (   16) HAS LZ(WEIGHT)=-1.00( 50.0%)  1.00( 50.0%) 
 MO    21 (   16) HAS LZ(WEIGHT)=-1.00( 50.0%)  1.00( 50.0%) 
 MO    22 (   17) HAS LZ(WEIGHT)=-2.00( 50.0%)  2.00( 50.0%) 
 MO    23 (   17) HAS LZ(WEIGHT)=-2.00( 50.0%)  2.00( 50.0%) 
 MO    24 (   18) HAS LZ(WEIGHT)=-1.00( 50.0%)  1.00( 50.0%) 
 MO    25 (   18) HAS LZ(WEIGHT)=-1.00( 50.0%)  1.00( 50.0%) 
 MO    26 (   19) HAS LZ(WEIGHT)= 0.00(100.0%) 
 MO    27 (   20) HAS LZ(WEIGHT)=-1.00( 50.0%)  1.00( 50.0%) 
 MO    28 (   20) HAS LZ(WEIGHT)=-1.00( 50.0%)  1.00( 50.0%) 
 MO    29 (   21) HAS LZ(WEIGHT)= 0.00(100.0%) 
 MO    30 (   22) HAS LZ(WEIGHT)=-2.00( 50.0%)  2.00( 50.0%) 
 MO    31 (   22) HAS LZ(WEIGHT)=-2.00( 50.0%)  2.00( 50.0%) 
 MO    32 (   23) HAS LZ(WEIGHT)= 0.00(100.0%) 
 MO    33 (   24) HAS LZ(WEIGHT)=-1.00( 50.0%)  1.00( 50.0%) 
 MO    34 (   24) HAS LZ(WEIGHT)=-1.00( 50.0%)  1.00( 50.0%) 
 MO    35 (   25) HAS LZ(WEIGHT)= 0.00(100.0%) 
 MO    36 (   26) HAS LZ(WEIGHT)= 0.00(100.0%) 
 MO    37 (   27) HAS LZ(WEIGHT)=-2.00( 50.0%)  2.00( 50.0%) 
 MO    38 (   27) HAS LZ(WEIGHT)=-2.00( 50.0%)  2.00( 50.0%) 
 MO    39 (   28) HAS LZ(WEIGHT)=-1.00( 50.0%)  1.00( 50.0%) 
 MO    40 (   28) HAS LZ(WEIGHT)=-1.00( 50.0%)  1.00( 50.0%) 
 MO    41 (   29) HAS LZ(WEIGHT)=-2.00( 50.0%)  2.00( 50.0%) 
 MO    42 (   29) HAS LZ(WEIGHT)=-2.00( 50.0%)  2.00( 50.0%) 
 MO    43 (   30) HAS LZ(WEIGHT)= 0.00(100.0%) 
 MO    44 (   31) HAS LZ(WEIGHT)=-1.00( 50.0%)  1.00( 50.0%) 
 MO    45 (   31) HAS LZ(WEIGHT)=-1.00( 50.0%)  1.00( 50.0%) 
 MO    46 (   32) HAS LZ(WEIGHT)= 0.00(100.0%) 

          ------------
          EIGENVECTORS
          ------------

                      1          2          3          4          5
                   -2.4500    -2.4496    -0.1815     0.0027     0.0118
                     A          A          A          A          A   
    1  LI 1  S    0.708049   0.705911  -0.037044  -0.015050   0.000000
    2  LI 1  S    0.001887  -0.004287   0.315125   0.115166   0.000000
    3  LI 1  S   -0.004761  -0.021249   0.243542  -0.244581   0.000000
    4  LI 1  X    0.000000   0.000000   0.000000   0.000000   0.075807
    5  LI 1  Y    0.000000   0.000000   0.000000   0.000000   0.021876
    6  LI 1  Z   -0.001496  -0.008838   0.106483  -0.068518   0.000000
    7  LI 1  X    0.000000   0.000000   0.000000   0.000000  -0.006089
    8  LI 1  Y    0.000000   0.000000   0.000000   0.000000  -0.001757
    9  LI 1  Z    0.000737  -0.005407  -0.022595  -0.389072   0.000000
   10  LI 1 XX   -0.000471   0.001068  -0.016009  -0.007463   0.000000
   11  LI 1 YY   -0.000471   0.001068  -0.016009  -0.007463   0.000000
   12  LI 1 ZZ    0.000943  -0.002136   0.032019   0.014925   0.000000
   13  LI 1 XY    0.000000   0.000000   0.000000   0.000000   0.000000
   14  LI 1 XZ    0.000000   0.000000   0.000000   0.000000   0.003235
   15  LI 1 YZ    0.000000   0.000000   0.000000   0.000000   0.000934
   16  LI 1  S    0.001122   0.004778   0.010823  -1.161081   0.000000
   17  LI 1  X    0.000000   0.000000   0.000000   0.000000   0.476365
   18  LI 1  Y    0.000000   0.000000   0.000000   0.000000   0.137470
   19  LI 1  Z   -0.000016   0.000874   0.022116  -0.574372   0.000000
   20  LI 1 XX    0.000518   0.000623   0.023107   0.005715   0.000000
   21  LI 1 YY    0.000518   0.000623   0.023107   0.005715   0.000000
   22  LI 1 ZZ   -0.001037  -0.001246  -0.046213  -0.011429   0.000000
   23  LI 1 XY    0.000000   0.000000   0.000000   0.000000   0.000000
   24  LI 1 XZ    0.000000   0.000000   0.000000   0.000000  -0.006953
   25  LI 1 YZ    0.000000   0.000000   0.000000   0.000000  -0.002006
   26  LI 2  S    0.708049  -0.705911  -0.037044   0.015050   0.000000
   27  LI 2  S    0.001887   0.004287   0.315125  -0.115166   0.000000
   28  LI 2  S   -0.004761   0.021249   0.243542   0.244581   0.000000
   29  LI 2  X    0.000000   0.000000   0.000000   0.000000   0.075807
   30  LI 2  Y    0.000000   0.000000   0.000000   0.000000   0.021876
   31  LI 2  Z    0.001496  -0.008838  -0.106483  -0.068518   0.000000
   32  LI 2  X    0.000000   0.000000   0.000000   0.000000  -0.006089
   33  LI 2  Y    0.000000   0.000000   0.000000   0.000000  -0.001757
   34  LI 2  Z   -0.000737  -0.005407   0.022595  -0.389072   0.000000
   35  LI 2 XX   -0.000471  -0.001068  -0.016009   0.007463   0.000000
   36  LI 2 YY   -0.000471  -0.001068  -0.016009   0.007463   0.000000
   37  LI 2 ZZ    0.000943   0.002136   0.032019  -0.014925   0.000000
   38  LI 2 XY    0.000000   0.000000   0.000000   0.000000   0.000000
   39  LI 2 XZ    0.000000   0.000000   0.000000   0.000000  -0.003235
   40  LI 2 YZ    0.000000   0.000000   0.000000   0.000000  -0.000934
   41  LI 2  S    0.001122  -0.004778   0.010823   1.161081   0.000000
   42  LI 2  X    0.000000   0.000000   0.000000   0.000000   0.476365
   43  LI 2  Y    0.000000   0.000000   0.000000   0.000000   0.137470
   44  LI 2  Z    0.000016   0.000874  -0.022116  -0.574372   0.000000
   45  LI 2 XX    0.000518  -0.000623   0.023107  -0.005715   0.000000
   46  LI 2 YY    0.000518  -0.000623   0.023107  -0.005715   0.000000
   47  LI 2 ZZ   -0.001037   0.001246  -0.046213   0.011429   0.000000
   48  LI 2 XY    0.000000   0.000000   0.000000   0.000000   0.000000
   49  LI 2 XZ    0.000000   0.000000   0.000000   0.000000   0.006953
   50  LI 2 YZ    0.000000   0.000000   0.000000   0.000000   0.002006

                      6          7          8          9         10
                    0.0118     0.0121     0.0162     0.0187     0.0187
                     A          A          A          A          A   
    1  LI 1  S    0.000000  -0.013163   0.006501   0.000000   0.000000
    2  LI 1  S    0.000000   0.014670  -0.123054   0.000000   0.000000
    3  LI 1  S    0.000000   0.271409  -0.449325   0.000000   0.000000
    4  LI 1  X   -0.021876   0.000000   0.000000  -0.000521   0.013600
    5  LI 1  Y    0.075807   0.000000   0.000000   0.013600   0.000521
    6  LI 1  Z    0.000000   0.061181   0.073048   0.000000   0.000000
    7  LI 1  X    0.001757   0.000000   0.000000   0.006856  -0.178795
    8  LI 1  Y   -0.006089   0.000000   0.000000  -0.178795  -0.006856
    9  LI 1  Z    0.000000  -0.073616  -0.331502   0.000000   0.000000
   10  LI 1 XX    0.000000  -0.010186  -0.014079   0.000000   0.000000
   11  LI 1 YY    0.000000  -0.010186  -0.014079   0.000000   0.000000
   12  LI 1 ZZ    0.000000   0.020373   0.028158   0.000000   0.000000
   13  LI 1 XY    0.000000   0.000000   0.000000   0.000000   0.000000
   14  LI 1 XZ   -0.000934   0.000000   0.000000  -0.000887   0.023121
   15  LI 1 YZ    0.003235   0.000000   0.000000   0.023121   0.000887
   16  LI 1  S    0.000000  -0.789120  -6.915192   0.000000   0.000000
   17  LI 1  X   -0.137470   0.000000   0.000000  -0.106956   2.789347
   18  LI 1  Y    0.476365   0.000000   0.000000   2.789347   0.106956
   19  LI 1  Z    0.000000   1.613928  -1.641208   0.000000   0.000000
   20  LI 1 XX    0.000000   0.023034   0.029053   0.000000   0.000000
   21  LI 1 YY    0.000000   0.023034   0.029053   0.000000   0.000000
   22  LI 1 ZZ    0.000000  -0.046068  -0.058107   0.000000   0.000000
   23  LI 1 XY    0.000000   0.000000   0.000000   0.000000   0.000000
   24  LI 1 XZ    0.002006   0.000000   0.000000   0.002263  -0.059024
   25  LI 1 YZ   -0.006953   0.000000   0.000000  -0.059024  -0.002263
   26  LI 2  S    0.000000  -0.013163  -0.006501   0.000000   0.000000
   27  LI 2  S    0.000000   0.014670   0.123054   0.000000   0.000000
   28  LI 2  S    0.000000   0.271409   0.449325   0.000000   0.000000
   29  LI 2  X   -0.021876   0.000000   0.000000   0.000521  -0.013600
   30  LI 2  Y    0.075807   0.000000   0.000000  -0.013600  -0.000521
   31  LI 2  Z    0.000000  -0.061181   0.073048   0.000000   0.000000
   32  LI 2  X    0.001757   0.000000   0.000000  -0.006856   0.178795
   33  LI 2  Y   -0.006089   0.000000   0.000000   0.178795   0.006856
   34  LI 2  Z    0.000000   0.073616  -0.331502   0.000000   0.000000
   35  LI 2 XX    0.000000  -0.010186   0.014079   0.000000   0.000000
   36  LI 2 YY    0.000000  -0.010186   0.014079   0.000000   0.000000
   37  LI 2 ZZ    0.000000   0.020373  -0.028158   0.000000   0.000000
   38  LI 2 XY    0.000000   0.000000   0.000000   0.000000   0.000000
   39  LI 2 XZ    0.000934   0.000000   0.000000  -0.000887   0.023121
   40  LI 2 YZ   -0.003235   0.000000   0.000000   0.023121   0.000887
   41  LI 2  S    0.000000  -0.789120   6.915192   0.000000   0.000000
   42  LI 2  X   -0.137470   0.000000   0.000000   0.106956  -2.789347
   43  LI 2  Y    0.476365   0.000000   0.000000  -2.789347  -0.106956
   44  LI 2  Z    0.000000  -1.613928  -1.641208   0.000000   0.000000
   45  LI 2 XX    0.000000   0.023034  -0.029053   0.000000   0.000000
   46  LI 2 YY    0.000000   0.023034  -0.029053   0.000000   0.000000
   47  LI 2 ZZ    0.000000  -0.046068   0.058107   0.000000   0.000000
   48  LI 2 XY    0.000000   0.000000   0.000000   0.000000   0.000000
   49  LI 2 XZ   -0.002006   0.000000   0.000000   0.002263  -0.059024
   50  LI 2 YZ    0.006953   0.000000   0.000000  -0.059024  -0.002263

                     11         12         13         14         15
                    0.0288     0.0424     0.0424     0.0543     0.0585
                     A          A          A          A          A   
    1  LI 1  S    0.056450   0.000000   0.000000  -0.023486   0.022990
    2  LI 1  S    0.033936   0.000000   0.000000   0.118133   0.062009
    3  LI 1  S   -0.576486   0.000000   0.000000  -2.276413  -0.909034
    4  LI 1  X    0.000000  -0.088731   0.096866   0.000000   0.000000
    5  LI 1  Y    0.000000   0.096866   0.088731   0.000000   0.000000
    6  LI 1  Z   -0.045704   0.000000   0.000000  -0.072189   0.115042
    7  LI 1  X    0.000000  -0.377559   0.412173   0.000000   0.000000
    8  LI 1  Y    0.000000   0.412173   0.377559   0.000000   0.000000
    9  LI 1  Z   -0.084314   0.000000   0.000000  -2.520018   1.027905
   10  LI 1 XX    0.015338   0.000000   0.000000  -0.061262   0.020902
   11  LI 1 YY    0.015338   0.000000   0.000000  -0.061262   0.020902
   12  LI 1 ZZ   -0.030676   0.000000   0.000000   0.122525  -0.041803
   13  LI 1 XY    0.000000   0.000000   0.000000   0.000000   0.000000
   14  LI 1 XZ    0.000000  -0.023809   0.025992   0.000000   0.000000
   15  LI 1 YZ    0.000000   0.025992   0.023809   0.000000   0.000000
   16  LI 1  S    0.403476   0.000000   0.000000 -12.398839   0.599835
   17  LI 1  X    0.000000   0.250646  -0.273625   0.000000   0.000000
   18  LI 1  Y    0.000000  -0.273625  -0.250646   0.000000   0.000000
   19  LI 1  Z    1.457587   0.000000   0.000000  -1.784646  -0.561077
   20  LI 1 XX   -0.020556   0.000000   0.000000   0.096535  -0.041169
   21  LI 1 YY   -0.020556   0.000000   0.000000   0.096535  -0.041169
   22  LI 1 ZZ    0.041111   0.000000   0.000000  -0.193071   0.082339
   23  LI 1 XY    0.000000   0.000000   0.000000   0.000000   0.000000
   24  LI 1 XZ    0.000000   0.038349  -0.041865   0.000000   0.000000
   25  LI 1 YZ    0.000000  -0.041865  -0.038349   0.000000   0.000000
   26  LI 2  S    0.056450   0.000000   0.000000   0.023486   0.022990
   27  LI 2  S    0.033936   0.000000   0.000000  -0.118133   0.062009
   28  LI 2  S   -0.576486   0.000000   0.000000   2.276413  -0.909034
   29  LI 2  X    0.000000  -0.088731   0.096866   0.000000   0.000000
   30  LI 2  Y    0.000000   0.096866   0.088731   0.000000   0.000000
   31  LI 2  Z    0.045704   0.000000   0.000000  -0.072189  -0.115042
   32  LI 2  X    0.000000  -0.377559   0.412173   0.000000   0.000000
   33  LI 2  Y    0.000000   0.412173   0.377559   0.000000   0.000000
   34  LI 2  Z    0.084314   0.000000   0.000000  -2.520018  -1.027905
   35  LI 2 XX    0.015338   0.000000   0.000000   0.061262   0.020902
   36  LI 2 YY    0.015338   0.000000   0.000000   0.061262   0.020902
   37  LI 2 ZZ   -0.030676   0.000000   0.000000  -0.122525  -0.041803
   38  LI 2 XY    0.000000   0.000000   0.000000   0.000000   0.000000
   39  LI 2 XZ    0.000000   0.023809  -0.025992   0.000000   0.000000
   40  LI 2 YZ    0.000000  -0.025992  -0.023809   0.000000   0.000000
   41  LI 2  S    0.403476   0.000000   0.000000  12.398839   0.599835
   42  LI 2  X    0.000000   0.250646  -0.273625   0.000000   0.000000
   43  LI 2  Y    0.000000  -0.273625  -0.250646   0.000000   0.000000
   44  LI 2  Z   -1.457587   0.000000   0.000000  -1.784646   0.561077
   45  LI 2 XX   -0.020556   0.000000   0.000000  -0.096535  -0.041169
   46  LI 2 YY   -0.020556   0.000000   0.000000  -0.096535  -0.041169
   47  LI 2 ZZ    0.041111   0.000000   0.000000   0.193071   0.082339
   48  LI 2 XY    0.000000   0.000000   0.000000   0.000000   0.000000
   49  LI 2 XZ    0.000000  -0.038349   0.041865   0.000000   0.000000
   50  LI 2 YZ    0.000000   0.041865   0.038349   0.000000   0.000000

                     16         17         18         19         20
                    0.0742     0.0742     0.1075     0.1552     0.1715
                     A          A          A          A          A   
    1  LI 1  S    0.000000   0.000000  -0.141992   0.167974   0.000000
    2  LI 1  S    0.000000   0.000000  -0.106238   0.429578   0.000000
    3  LI 1  S    0.000000   0.000000   9.945647  -0.286002   0.000000
    4  LI 1  X   -0.049587   0.046243   0.000000   0.000000  -0.183481
    5  LI 1  Y   -0.046243  -0.049587   0.000000   0.000000   0.702165
    6  LI 1  Z    0.000000   0.000000   0.038944   0.722298   0.000000
    7  LI 1  X   -1.231397   1.148356   0.000000   0.000000   0.168648
    8  LI 1  Y   -1.148356  -1.231397   0.000000   0.000000  -0.645402
    9  LI 1  Z    0.000000   0.000000   5.644532  -1.150547   0.000000
   10  LI 1 XX    0.000000   0.000000   0.096377   0.010666   0.000000
   11  LI 1 YY    0.000000   0.000000   0.096377   0.010666   0.000000
   12  LI 1 ZZ    0.000000   0.000000  -0.192753  -0.021333   0.000000
   13  LI 1 XY    0.000000   0.000000   0.000000   0.000000   0.000000
   14  LI 1 XZ    0.092772  -0.086516   0.000000   0.000000   0.047213
   15  LI 1 YZ    0.086516   0.092772   0.000000   0.000000  -0.180681
   16  LI 1  S    0.000000   0.000000   7.359663  -0.038111   0.000000
   17  LI 1  X    0.898116  -0.837550   0.000000   0.000000  -0.050558
   18  LI 1  Y    0.837550   0.898116   0.000000   0.000000   0.193480
   19  LI 1  Z    0.000000   0.000000   0.744642   0.667174   0.000000
   20  LI 1 XX    0.000000   0.000000  -0.213486   0.042222   0.000000
   21  LI 1 YY    0.000000   0.000000  -0.213486   0.042222   0.000000
   22  LI 1 ZZ    0.000000   0.000000   0.426971  -0.084445   0.000000
   23  LI 1 XY    0.000000   0.000000   0.000000   0.000000   0.000000
   24  LI 1 XZ   -0.173958   0.162227   0.000000   0.000000  -0.090764
   25  LI 1 YZ   -0.162227  -0.173958   0.000000   0.000000   0.347347
   26  LI 2  S    0.000000   0.000000   0.141992   0.167974   0.000000
   27  LI 2  S    0.000000   0.000000   0.106238   0.429578   0.000000
   28  LI 2  S    0.000000   0.000000  -9.945647  -0.286002   0.000000
   29  LI 2  X    0.049587  -0.046243   0.000000   0.000000  -0.183481
   30  LI 2  Y    0.046243   0.049587   0.000000   0.000000   0.702165
   31  LI 2  Z    0.000000   0.000000   0.038944  -0.722298   0.000000
   32  LI 2  X    1.231397  -1.148356   0.000000   0.000000   0.168648
   33  LI 2  Y    1.148356   1.231397   0.000000   0.000000  -0.645402
   34  LI 2  Z    0.000000   0.000000   5.644532   1.150547   0.000000
   35  LI 2 XX    0.000000   0.000000  -0.096377   0.010666   0.000000
   36  LI 2 YY    0.000000   0.000000  -0.096377   0.010666   0.000000
   37  LI 2 ZZ    0.000000   0.000000   0.192753  -0.021333   0.000000
   38  LI 2 XY    0.000000   0.000000   0.000000   0.000000   0.000000
   39  LI 2 XZ    0.092772  -0.086516   0.000000   0.000000  -0.047213
   40  LI 2 YZ    0.086516   0.092772   0.000000   0.000000   0.180681
   41  LI 2  S    0.000000   0.000000  -7.359663  -0.038111   0.000000
   42  LI 2  X   -0.898116   0.837550   0.000000   0.000000  -0.050558
   43  LI 2  Y   -0.837550  -0.898116   0.000000   0.000000   0.193480
   44  LI 2  Z    0.000000   0.000000   0.744642  -0.667174   0.000000
   45  LI 2 XX    0.000000   0.000000   0.213486   0.042222   0.000000
   46  LI 2 YY    0.000000   0.000000   0.213486   0.042222   0.000000
   47  LI 2 ZZ    0.000000   0.000000  -0.426971  -0.084445   0.000000
   48  LI 2 XY    0.000000   0.000000   0.000000   0.000000   0.000000
   49  LI 2 XZ   -0.173958   0.162227   0.000000   0.000000   0.090764
   50  LI 2 YZ   -0.162227  -0.173958   0.000000   0.000000  -0.347347

                     21         22         23         24         25
                    0.1715     0.1854     0.1854     0.1960     0.1960
                     A          A          A          A          A   
    1  LI 1  S    0.000000   0.000000   0.000000   0.000000   0.000000
    2  LI 1  S    0.000000   0.000000   0.000000   0.000000   0.000000
    3  LI 1  S    0.000000   0.000000   0.000000   0.000000   0.000000
    4  LI 1  X    0.702165   0.000000   0.000000   0.372748   0.317233
    5  LI 1  Y    0.183481   0.000000   0.000000   0.317233  -0.372748
    6  LI 1  Z    0.000000   0.000000   0.000000   0.000000   0.000000
    7  LI 1  X   -0.645402   0.000000   0.000000  -1.272673  -1.083128
    8  LI 1  Y   -0.168648   0.000000   0.000000  -1.083128   1.272673
    9  LI 1  Z    0.000000   0.000000   0.000000   0.000000   0.000000
   10  LI 1 XX    0.000000   0.022033  -0.406179   0.000000   0.000000
   11  LI 1 YY    0.000000  -0.022033   0.406179   0.000000   0.000000
   12  LI 1 ZZ    0.000000   0.000000   0.000000   0.000000   0.000000
   13  LI 1 XY    0.000000  -0.469015  -0.025442   0.000000   0.000000
   14  LI 1 XZ   -0.180681   0.000000   0.000000   0.303365   0.258183
   15  LI 1 YZ   -0.047213   0.000000   0.000000   0.258183  -0.303365
   16  LI 1  S    0.000000   0.000000   0.000000   0.000000   0.000000
   17  LI 1  X    0.193480   0.000000   0.000000   0.559310   0.476010
   18  LI 1  Y    0.050558   0.000000   0.000000   0.476010  -0.559310
   19  LI 1  Z    0.000000   0.000000   0.000000   0.000000   0.000000
   20  LI 1 XX    0.000000  -0.046077   0.849422   0.000000   0.000000
   21  LI 1 YY    0.000000   0.046077  -0.849422   0.000000   0.000000
   22  LI 1 ZZ    0.000000   0.000000   0.000000   0.000000   0.000000
   23  LI 1 XY    0.000000   0.980828   0.053205   0.000000   0.000000
   24  LI 1 XZ    0.347347   0.000000   0.000000  -0.911560  -0.775797
   25  LI 1 YZ    0.090764   0.000000   0.000000  -0.775797   0.911560
   26  LI 2  S    0.000000   0.000000   0.000000   0.000000   0.000000
   27  LI 2  S    0.000000   0.000000   0.000000   0.000000   0.000000
   28  LI 2  S    0.000000   0.000000   0.000000   0.000000   0.000000
   29  LI 2  X    0.702165   0.000000   0.000000  -0.372748  -0.317233
   30  LI 2  Y    0.183481   0.000000   0.000000  -0.317233   0.372748
   31  LI 2  Z    0.000000   0.000000   0.000000   0.000000   0.000000
   32  LI 2  X   -0.645402   0.000000   0.000000   1.272673   1.083128
   33  LI 2  Y   -0.168648   0.000000   0.000000   1.083128  -1.272673
   34  LI 2  Z    0.000000   0.000000   0.000000   0.000000   0.000000
   35  LI 2 XX    0.000000   0.022033  -0.406179   0.000000   0.000000
   36  LI 2 YY    0.000000  -0.022033   0.406179   0.000000   0.000000
   37  LI 2 ZZ    0.000000   0.000000   0.000000   0.000000   0.000000
   38  LI 2 XY    0.000000  -0.469015  -0.025442   0.000000   0.000000
   39  LI 2 XZ    0.180681   0.000000   0.000000   0.303365   0.258183
   40  LI 2 YZ    0.047213   0.000000   0.000000   0.258183  -0.303365
   41  LI 2  S    0.000000   0.000000   0.000000   0.000000   0.000000
   42  LI 2  X    0.193480   0.000000   0.000000  -0.559310  -0.476010
   43  LI 2  Y    0.050558   0.000000   0.000000  -0.476010   0.559310
   44  LI 2  Z    0.000000   0.000000   0.000000   0.000000   0.000000
   45  LI 2 XX    0.000000  -0.046077   0.849422   0.000000   0.000000
   46  LI 2 YY    0.000000   0.046077  -0.849422   0.000000   0.000000
   47  LI 2 ZZ    0.000000   0.000000   0.000000   0.000000   0.000000
   48  LI 2 XY    0.000000   0.980828   0.053205   0.000000   0.000000
   49  LI 2 XZ   -0.347347   0.000000   0.000000  -0.911560  -0.775797
   50  LI 2 YZ   -0.090764   0.000000   0.000000  -0.775797   0.911560

                     26         27         28         29         30
                    0.1992     0.2353     0.2353     0.2386     0.2387
                     A          A          A          A          A   
    1  LI 1  S   -0.232957   0.000000   0.000000  -0.218771   0.000000
    2  LI 1  S   -0.903760   0.000000   0.000000  -0.425734   0.000000
    3  LI 1  S    1.444923   0.000000   0.000000  -3.011664   0.000000
    4  LI 1  X    0.000000  -0.327649   0.451750   0.000000   0.000000
    5  LI 1  Y    0.000000  -0.451750  -0.327649   0.000000   0.000000
    6  LI 1  Z    0.368551   0.000000   0.000000   0.433416   0.000000
    7  LI 1  X    0.000000   0.156487  -0.215758   0.000000   0.000000
    8  LI 1  Y    0.000000   0.215758   0.156487   0.000000   0.000000
    9  LI 1  Z   -0.632474   0.000000   0.000000  -2.410981   0.000000
   10  LI 1 XX   -0.140586   0.000000   0.000000  -0.317745  -0.517856
   11  LI 1 YY   -0.140586   0.000000   0.000000  -0.317745   0.517856
   12  LI 1 ZZ    0.281173   0.000000   0.000000   0.635489   0.000000
   13  LI 1 XY    0.000000   0.000000   0.000000   0.000000   0.197960
   14  LI 1 XZ    0.000000  -0.278511   0.384001   0.000000   0.000000
   15  LI 1 YZ    0.000000  -0.384001  -0.278511   0.000000   0.000000
   16  LI 1  S   -0.518273   0.000000   0.000000  -5.131769   0.000000
   17  LI 1  X    0.000000  -0.031813   0.043863   0.000000   0.000000
   18  LI 1  Y    0.000000  -0.043863  -0.031813   0.000000   0.000000
   19  LI 1  Z   -0.034020   0.000000   0.000000  -0.636436   0.000000
   20  LI 1 XX    0.378949   0.000000   0.000000   0.677931   1.244087
   21  LI 1 YY    0.378949   0.000000   0.000000   0.677931  -1.244087
   22  LI 1 ZZ   -0.757897   0.000000   0.000000  -1.355862   0.000000
   23  LI 1 XY    0.000000   0.000000   0.000000   0.000000  -0.475575
   24  LI 1 XZ    0.000000   0.637807  -0.879384   0.000000   0.000000
   25  LI 1 YZ    0.000000   0.879384   0.637807   0.000000   0.000000
   26  LI 2  S   -0.232957   0.000000   0.000000   0.218771   0.000000
   27  LI 2  S   -0.903760   0.000000   0.000000   0.425734   0.000000
   28  LI 2  S    1.444923   0.000000   0.000000   3.011664   0.000000
   29  LI 2  X    0.000000  -0.327649   0.451750   0.000000   0.000000
   30  LI 2  Y    0.000000  -0.451750  -0.327649   0.000000   0.000000
   31  LI 2  Z   -0.368551   0.000000   0.000000   0.433416   0.000000
   32  LI 2  X    0.000000   0.156487  -0.215758   0.000000   0.000000
   33  LI 2  Y    0.000000   0.215758   0.156487   0.000000   0.000000
   34  LI 2  Z    0.632474   0.000000   0.000000  -2.410981   0.000000
   35  LI 2 XX   -0.140586   0.000000   0.000000   0.317745   0.517856
   36  LI 2 YY   -0.140586   0.000000   0.000000   0.317745  -0.517856
   37  LI 2 ZZ    0.281173   0.000000   0.000000  -0.635489   0.000000
   38  LI 2 XY    0.000000   0.000000   0.000000   0.000000  -0.197960
   39  LI 2 XZ    0.000000   0.278511  -0.384001   0.000000   0.000000
   40  LI 2 YZ    0.000000   0.384001   0.278511   0.000000   0.000000
   41  LI 2  S   -0.518273   0.000000   0.000000   5.131769   0.000000
   42  LI 2  X    0.000000  -0.031813   0.043863   0.000000   0.000000
   43  LI 2  Y    0.000000  -0.043863  -0.031813   0.000000   0.000000
   44  LI 2  Z    0.034020   0.000000   0.000000  -0.636436   0.000000
   45  LI 2 XX    0.378949   0.000000   0.000000  -0.677931  -1.244087
   46  LI 2 YY    0.378949   0.000000   0.000000  -0.677931   1.244087
   47  LI 2 ZZ   -0.757897   0.000000   0.000000   1.355862   0.000000
   48  LI 2 XY    0.000000   0.000000   0.000000   0.000000   0.475575
   49  LI 2 XZ    0.000000  -0.637807   0.879384   0.000000   0.000000
   50  LI 2 YZ    0.000000  -0.879384  -0.637807   0.000000   0.000000

                     31         32         33         34         35
                    0.2387     0.2865     0.3524     0.3524     0.4214
                     A          A          A          A          A   
    1  LI 1  S    0.000000  -0.503616   0.000000   0.000000   0.889288
    2  LI 1  S    0.000000  -1.525997   0.000000   0.000000   1.996919
    3  LI 1  S    0.000000  11.197147   0.000000   0.000000  -1.450762
    4  LI 1  X    0.000000   0.000000   1.346985  -0.030588   0.000000
    5  LI 1  Y    0.000000   0.000000   0.030588   1.346985   0.000000
    6  LI 1  Z    0.000000   0.840666   0.000000   0.000000  -0.057257
    7  LI 1  X    0.000000   0.000000   0.819703  -0.018614   0.000000
    8  LI 1  Y    0.000000   0.000000   0.018614   0.819703   0.000000
    9  LI 1  Z    0.000000   4.074429   0.000000   0.000000  -0.997661
   10  LI 1 XX   -0.171439   0.124777   0.000000   0.000000  -0.040373
   11  LI 1 YY    0.171439   0.124777   0.000000   0.000000  -0.040373
   12  LI 1 ZZ    0.000000  -0.249554   0.000000   0.000000   0.080747
   13  LI 1 XY   -0.597969   0.000000   0.000000   0.000000   0.000000
   14  LI 1 XZ    0.000000   0.000000  -0.813439   0.018472   0.000000
   15  LI 1 YZ    0.000000   0.000000  -0.018472  -0.813439   0.000000
   16  LI 1  S    0.000000   0.406674   0.000000   0.000000   0.182806
   17  LI 1  X    0.000000   0.000000  -0.220110   0.004998   0.000000
   18  LI 1  Y    0.000000   0.000000  -0.004998  -0.220110   0.000000
   19  LI 1  Z    0.000000  -0.112649   0.000000   0.000000   0.478000
   20  LI 1 XX    0.411860  -0.433506   0.000000   0.000000   0.654708
   21  LI 1 YY   -0.411860  -0.433506   0.000000   0.000000   0.654708
   22  LI 1 ZZ    0.000000   0.867013   0.000000   0.000000  -1.309417
   23  LI 1 XY    1.436548   0.000000   0.000000   0.000000   0.000000
   24  LI 1 XZ    0.000000   0.000000   2.305814  -0.052362   0.000000
   25  LI 1 YZ    0.000000   0.000000   0.052362   2.305814   0.000000
   26  LI 2  S    0.000000   0.503616   0.000000   0.000000   0.889288
   27  LI 2  S    0.000000   1.525997   0.000000   0.000000   1.996919
   28  LI 2  S    0.000000 -11.197147   0.000000   0.000000  -1.450762
   29  LI 2  X    0.000000   0.000000  -1.346985   0.030588   0.000000
   30  LI 2  Y    0.000000   0.000000  -0.030588  -1.346985   0.000000
   31  LI 2  Z    0.000000   0.840666   0.000000   0.000000   0.057257
   32  LI 2  X    0.000000   0.000000  -0.819703   0.018614   0.000000
   33  LI 2  Y    0.000000   0.000000  -0.018614  -0.819703   0.000000
   34  LI 2  Z    0.000000   4.074429   0.000000   0.000000   0.997661
   35  LI 2 XX    0.171439  -0.124777   0.000000   0.000000  -0.040373
   36  LI 2 YY   -0.171439  -0.124777   0.000000   0.000000  -0.040373
   37  LI 2 ZZ    0.000000   0.249554   0.000000   0.000000   0.080747
   38  LI 2 XY    0.597969   0.000000   0.000000   0.000000   0.000000
   39  LI 2 XZ    0.000000   0.000000  -0.813439   0.018472   0.000000
   40  LI 2 YZ    0.000000   0.000000  -0.018472  -0.813439   0.000000
   41  LI 2  S    0.000000  -0.406674   0.000000   0.000000   0.182806
   42  LI 2  X    0.000000   0.000000   0.220110  -0.004998   0.000000
   43  LI 2  Y    0.000000   0.000000   0.004998   0.220110   0.000000
   44  LI 2  Z    0.000000  -0.112649   0.000000   0.000000  -0.478000
   45  LI 2 XX   -0.411860   0.433506   0.000000   0.000000   0.654708
   46  LI 2 YY    0.411860   0.433506   0.000000   0.000000   0.654708
   47  LI 2 ZZ    0.000000  -0.867013   0.000000   0.000000  -1.309417
   48  LI 2 XY   -1.436548   0.000000   0.000000   0.000000   0.000000
   49  LI 2 XZ    0.000000   0.000000   2.305814  -0.052362   0.000000
   50  LI 2 YZ    0.000000   0.000000   0.052362   2.305814   0.000000

                     36         37         38         39         40
                    0.4911     0.5236     0.5236     0.5240     0.5240
                     A          A          A          A          A   
    1  LI 1  S    0.234431   0.000000   0.000000   0.000000   0.000000
    2  LI 1  S    0.620213   0.000000   0.000000   0.000000   0.000000
    3  LI 1  S    5.521898   0.000000   0.000000   0.000000   0.000000
    4  LI 1  X    0.000000   0.000000   0.000000   0.027167   0.012576
    5  LI 1  Y    0.000000   0.000000   0.000000   0.012576  -0.027167
    6  LI 1  Z    0.715786   0.000000   0.000000   0.000000   0.000000
    7  LI 1  X    0.000000   0.000000   0.000000   0.054659   0.025302
    8  LI 1  Y    0.000000   0.000000   0.000000   0.025302  -0.054659
    9  LI 1  Z    2.796307   0.000000   0.000000   0.000000   0.000000
   10  LI 1 XX    1.079127   1.368330  -0.222693   0.000000   0.000000
   11  LI 1 YY    1.079127  -1.368330   0.222693   0.000000   0.000000
   12  LI 1 ZZ   -2.158254   0.000000   0.000000   0.000000   0.000000
   13  LI 1 XY    0.000000   0.257144   1.580011   0.000000   0.000000
   14  LI 1 XZ    0.000000   0.000000   0.000000   1.401762   0.648880
   15  LI 1 YZ    0.000000   0.000000   0.000000   0.648880  -1.401762
   16  LI 1  S    3.460269   0.000000   0.000000   0.000000   0.000000
   17  LI 1  X    0.000000   0.000000   0.000000  -0.026099  -0.012081
   18  LI 1  Y    0.000000   0.000000   0.000000  -0.012081   0.026099
   19  LI 1  Z    0.393881   0.000000   0.000000   0.000000   0.000000
   20  LI 1 XX   -1.222468  -1.046446   0.170307   0.000000   0.000000
   21  LI 1 YY   -1.222468   1.046446  -0.170307   0.000000   0.000000
   22  LI 1 ZZ    2.444935   0.000000   0.000000   0.000000   0.000000
   23  LI 1 XY    0.000000  -0.196653  -1.208331   0.000000   0.000000
   24  LI 1 XZ    0.000000   0.000000   0.000000  -1.213814  -0.561878
   25  LI 1 YZ    0.000000   0.000000   0.000000  -0.561878   1.213814
   26  LI 2  S   -0.234431   0.000000   0.000000   0.000000   0.000000
   27  LI 2  S   -0.620213   0.000000   0.000000   0.000000   0.000000
   28  LI 2  S   -5.521898   0.000000   0.000000   0.000000   0.000000
   29  LI 2  X    0.000000   0.000000   0.000000   0.027167   0.012576
   30  LI 2  Y    0.000000   0.000000   0.000000   0.012576  -0.027167
   31  LI 2  Z    0.715786   0.000000   0.000000   0.000000   0.000000
   32  LI 2  X    0.000000   0.000000   0.000000   0.054659   0.025302
   33  LI 2  Y    0.000000   0.000000   0.000000   0.025302  -0.054659
   34  LI 2  Z    2.796307   0.000000   0.000000   0.000000   0.000000
   35  LI 2 XX   -1.079127   1.368330  -0.222693   0.000000   0.000000
   36  LI 2 YY   -1.079127  -1.368330   0.222693   0.000000   0.000000
   37  LI 2 ZZ    2.158254   0.000000   0.000000   0.000000   0.000000
   38  LI 2 XY    0.000000   0.257144   1.580011   0.000000   0.000000
   39  LI 2 XZ    0.000000   0.000000   0.000000  -1.401762  -0.648880
   40  LI 2 YZ    0.000000   0.000000   0.000000  -0.648880   1.401762
   41  LI 2  S   -3.460269   0.000000   0.000000   0.000000   0.000000
   42  LI 2  X    0.000000   0.000000   0.000000  -0.026099  -0.012081
   43  LI 2  Y    0.000000   0.000000   0.000000  -0.012081   0.026099
   44  LI 2  Z    0.393881   0.000000   0.000000   0.000000   0.000000
   45  LI 2 XX    1.222468  -1.046446   0.170307   0.000000   0.000000
   46  LI 2 YY    1.222468   1.046446  -0.170307   0.000000   0.000000
   47  LI 2 ZZ   -2.444935   0.000000   0.000000   0.000000   0.000000
   48  LI 2 XY    0.000000  -0.196653  -1.208331   0.000000   0.000000
   49  LI 2 XZ    0.000000   0.000000   0.000000   1.213814   0.561878
   50  LI 2 YZ    0.000000   0.000000   0.000000   0.561878  -1.213814

                     41         42         43         44         45
                    0.5859     0.5859     0.6580     0.6598     0.6598
                     A          A          A          A          A   
    1  LI 1  S    0.000000   0.000000  -0.637504   0.000000   0.000000
    2  LI 1  S    0.000000   0.000000  -1.417999   0.000000   0.000000
    3  LI 1  S    0.000000   0.000000   0.756943   0.000000   0.000000
    4  LI 1  X    0.000000   0.000000   0.000000   0.037959  -0.004645
    5  LI 1  Y    0.000000   0.000000   0.000000   0.004645   0.037959
    6  LI 1  Z    0.000000   0.000000   0.136889   0.000000   0.000000
    7  LI 1  X    0.000000   0.000000   0.000000  -0.939501   0.114955
    8  LI 1  Y    0.000000   0.000000   0.000000  -0.114955  -0.939501
    9  LI 1  Z    0.000000   0.000000   0.942303   0.000000   0.000000
   10  LI 1 XX   -1.590185   0.394793   1.014821   0.000000   0.000000
   11  LI 1 YY    1.590185  -0.394793   1.014821   0.000000   0.000000
   12  LI 1 ZZ    0.000000   0.000000  -2.029642   0.000000   0.000000
   13  LI 1 XY    0.455868   1.836187   0.000000   0.000000   0.000000
   14  LI 1 XZ    0.000000   0.000000   0.000000   2.480732  -0.303538
   15  LI 1 YZ    0.000000   0.000000   0.000000   0.303538   2.480732
   16  LI 1  S    0.000000   0.000000   0.012950   0.000000   0.000000
   17  LI 1  X    0.000000   0.000000   0.000000   0.314422  -0.038472
   18  LI 1  Y    0.000000   0.000000   0.000000   0.038472   0.314422
   19  LI 1  Z    0.000000   0.000000  -0.263580   0.000000   0.000000
   20  LI 1 XX    1.393526  -0.345969  -1.289997   0.000000   0.000000
   21  LI 1 YY   -1.393526   0.345969  -1.289997   0.000000   0.000000
   22  LI 1 ZZ    0.000000   0.000000   2.579994   0.000000   0.000000
   23  LI 1 XY   -0.399490  -1.609105   0.000000   0.000000   0.000000
   24  LI 1 XZ    0.000000   0.000000   0.000000  -2.271685   0.277959
   25  LI 1 YZ    0.000000   0.000000   0.000000  -0.277959  -2.271685
   26  LI 2  S    0.000000   0.000000  -0.637504   0.000000   0.000000
   27  LI 2  S    0.000000   0.000000  -1.417999   0.000000   0.000000
   28  LI 2  S    0.000000   0.000000   0.756943   0.000000   0.000000
   29  LI 2  X    0.000000   0.000000   0.000000  -0.037959   0.004645
   30  LI 2  Y    0.000000   0.000000   0.000000  -0.004645  -0.037959
   31  LI 2  Z    0.000000   0.000000  -0.136889   0.000000   0.000000
   32  LI 2  X    0.000000   0.000000   0.000000   0.939501  -0.114955
   33  LI 2  Y    0.000000   0.000000   0.000000   0.114955   0.939501
   34  LI 2  Z    0.000000   0.000000  -0.942303   0.000000   0.000000
   35  LI 2 XX    1.590185  -0.394793   1.014821   0.000000   0.000000
   36  LI 2 YY   -1.590185   0.394793   1.014821   0.000000   0.000000
   37  LI 2 ZZ    0.000000   0.000000  -2.029642   0.000000   0.000000
   38  LI 2 XY   -0.455868  -1.836187   0.000000   0.000000   0.000000
   39  LI 2 XZ    0.000000   0.000000   0.000000   2.480732  -0.303538
   40  LI 2 YZ    0.000000   0.000000   0.000000   0.303538   2.480732
   41  LI 2  S    0.000000   0.000000   0.012950   0.000000   0.000000
   42  LI 2  X    0.000000   0.000000   0.000000  -0.314422   0.038472
   43  LI 2  Y    0.000000   0.000000   0.000000  -0.038472  -0.314422
   44  LI 2  Z    0.000000   0.000000   0.263580   0.000000   0.000000
   45  LI 2 XX   -1.393526   0.345969  -1.289997   0.000000   0.000000
   46  LI 2 YY    1.393526  -0.345969  -1.289997   0.000000   0.000000
   47  LI 2 ZZ    0.000000   0.000000   2.579994   0.000000   0.000000
   48  LI 2 XY    0.399490   1.609105   0.000000   0.000000   0.000000
   49  LI 2 XZ    0.000000   0.000000   0.000000  -2.271685   0.277959
   50  LI 2 YZ    0.000000   0.000000   0.000000  -0.277959  -2.271685

                     46
                    0.9746
                     A   
    1  LI 1  S   -1.355398
    2  LI 1  S   -3.405858
    3  LI 1  S    2.951432
    4  LI 1  X    0.000000
    5  LI 1  Y    0.000000
    6  LI 1  Z   -3.021249
    7  LI 1  X    0.000000
    8  LI 1  Y    0.000000
    9  LI 1  Z    1.576928
   10  LI 1 XX    1.071173
   11  LI 1 YY    1.071173
   12  LI 1 ZZ   -2.142346
   13  LI 1 XY    0.000000
   14  LI 1 XZ    0.000000
   15  LI 1 YZ    0.000000
   16  LI 1  S    1.583392
   17  LI 1  X    0.000000
   18  LI 1  Y    0.000000
   19  LI 1  Z    0.157537
   20  LI 1 XX   -0.418887
   21  LI 1 YY   -0.418887
   22  LI 1 ZZ    0.837773
   23  LI 1 XY    0.000000
   24  LI 1 XZ    0.000000
   25  LI 1 YZ    0.000000
   26  LI 2  S    1.355398
   27  LI 2  S    3.405858
   28  LI 2  S   -2.951432
   29  LI 2  X    0.000000
   30  LI 2  Y    0.000000
   31  LI 2  Z   -3.021249
   32  LI 2  X    0.000000
   33  LI 2  Y    0.000000
   34  LI 2  Z    1.576928
   35  LI 2 XX   -1.071173
   36  LI 2 YY   -1.071173
   37  LI 2 ZZ    2.142346
   38  LI 2 XY    0.000000
   39  LI 2 XZ    0.000000
   40  LI 2 YZ    0.000000
   41  LI 2  S   -1.583392
   42  LI 2  X    0.000000
   43  LI 2  Y    0.000000
   44  LI 2  Z    0.157537
   45  LI 2 XX    0.418887
   46  LI 2 YY    0.418887
   47  LI 2 ZZ   -0.837773
   48  LI 2 XY    0.000000
   49  LI 2 XZ    0.000000
   50  LI 2 YZ    0.000000
 ...... END OF RHF CALCULATION ......
 CPU     0: STEP CPU TIME=     0.02 TOTAL CPU TIME=        0.1 (    0.0 MIN)
 TOTAL WALL CLOCK TIME=        0.2 SECONDS, CPU UTILIZATION IS  36.84%

     ----------------------------------------------------------------
     PROPERTY VALUES FOR THE RHF   SELF-CONSISTENT FIELD WAVEFUNCTION
     ----------------------------------------------------------------

          -----------------
          ENERGY COMPONENTS
          -----------------

         WAVEFUNCTION NORMALIZATION =       1.0000000000

                ONE ELECTRON ENERGY =     -23.1713663783
                TWO ELECTRON ENERGY =       6.5045093841
           NUCLEAR REPULSION ENERGY =       1.7972057521
                                      ------------------
                       TOTAL ENERGY =     -14.8696512420

 ELECTRON-ELECTRON POTENTIAL ENERGY =       6.5045093841
  NUCLEUS-ELECTRON POTENTIAL ENERGY =     -38.0938833220
   NUCLEUS-NUCLEUS POTENTIAL ENERGY =       1.7972057521
                                      ------------------
             TOTAL POTENTIAL ENERGY =     -29.7921681858
               TOTAL KINETIC ENERGY =      14.9225169438
                 VIRIAL RATIO (V/T) =       1.9964573200

  ...... PI ENERGY ANALYSIS ......

 ENERGY ANALYSIS:
            FOCK ENERGY=    -10.1623476071
          BARE H ENERGY=    -23.1713663783
     ELECTRONIC ENERGY =    -16.6668569927
         KINETIC ENERGY=     14.9225169438
          N-N REPULSION=      1.7972057521
           TOTAL ENERGY=    -14.8696512405
        SIGMA PART(1+2)=    -16.6668569927
               (K,V1,2)=     14.9225169438    -38.0938833220      6.5045093856
           PI PART(1+2)=      0.0000000000
               (K,V1,2)=      0.0000000000      0.0000000000      0.0000000000
  SIGMA SKELETON, ERROR=    -14.8696512405      0.0000000000
             MIXED PART= 0.00000E+00 0.00000E+00 0.00000E+00 0.00000E+00
 ...... END OF PI ENERGY ANALYSIS ......

          ---------------------------------------
          MULLIKEN AND LOWDIN POPULATION ANALYSES
          ---------------------------------------

               ----- POPULATIONS IN EACH AO -----
                             MULLIKEN      LOWDIN
              1  LI 1  S      1.99940     1.85396
              2  LI 1  S      0.50605     0.28375
              3  LI 1  S      0.41485     0.20291
              4  LI 1  X      0.00000     0.00000
              5  LI 1  Y      0.00000     0.00000
              6  LI 1  Z      0.07811     0.07099
              7  LI 1  X      0.00000     0.00000
              8  LI 1  Y      0.00000     0.00000
              9  LI 1  Z     -0.01610     0.04066
             10  LI 1 XX      0.00732     0.06261
             11  LI 1 YY      0.00000     0.06261
             12  LI 1 ZZ      0.00000     0.11256
             13  LI 1 XY      0.00000     0.00000
             14  LI 1 XZ      0.00000     0.00000
             15  LI 1 YZ      0.00000     0.00000
             16  LI 1  S      0.01440     0.07384
             17  LI 1  X      0.00000     0.00000
             18  LI 1  Y      0.00000     0.00000
             19  LI 1  Z      0.00760     0.00549
             20  LI 1 XX     -0.01163     0.05662
             21  LI 1 YY      0.00000     0.05662
             22  LI 1 ZZ      0.00000     0.11736
             23  LI 1 XY      0.00000     0.00000
             24  LI 1 XZ      0.00000     0.00000
             25  LI 1 YZ      0.00000     0.00000
             26  LI 2  S      1.99940     1.85396
             27  LI 2  S      0.50605     0.28375
             28  LI 2  S      0.41485     0.20291
             29  LI 2  X      0.00000     0.00000
             30  LI 2  Y      0.00000     0.00000
             31  LI 2  Z      0.07811     0.07099
             32  LI 2  X      0.00000     0.00000
             33  LI 2  Y      0.00000     0.00000
             34  LI 2  Z     -0.01610     0.04066
             35  LI 2 XX      0.00732     0.06261
             36  LI 2 YY      0.00000     0.06261
             37  LI 2 ZZ      0.00000     0.11256
             38  LI 2 XY      0.00000     0.00000
             39  LI 2 XZ      0.00000     0.00000
             40  LI 2 YZ      0.00000     0.00000
             41  LI 2  S      0.01440     0.07384
             42  LI 2  X      0.00000     0.00000
             43  LI 2  Y      0.00000     0.00000
             44  LI 2  Z      0.00760     0.00549
             45  LI 2 XX     -0.01163     0.05662
             46  LI 2 YY      0.00000     0.05662
             47  LI 2 ZZ      0.00000     0.11736
             48  LI 2 XY      0.00000     0.00000
             49  LI 2 XZ      0.00000     0.00000
             50  LI 2 YZ      0.00000     0.00000

          ----- MULLIKEN ATOMIC OVERLAP POPULATIONS -----
          (OFF-DIAGONAL ELEMENTS NEED TO BE MULTIPLIED BY 2)

             1           2

    1    2.5955663
    2    0.4044337   2.5955663

          TOTAL MULLIKEN AND LOWDIN ATOMIC POPULATIONS
       ATOM         MULL.POP.    CHARGE          LOW.POP.     CHARGE
    1 LI            3.000000   -0.000000         3.000000    0.000000
    2 LI            3.000000    0.000000         3.000000   -0.000000

          MULLIKEN SPHERICAL HARMONIC POPULATIONS
       ATOM           S       P       D      F      G      H      I    TOTAL
    1 LI            2.93    0.07   -0.00   0.00   0.00   0.00   0.00    3.00
    2 LI            2.93    0.07   -0.00   0.00   0.00   0.00   0.00    3.00

          ---------------------
          ELECTROSTATIC MOMENTS
          ---------------------

 POINT   1           X           Y           Z (BOHR)    CHARGE
                 0.000000    0.000000    2.503887       -0.00 (A.U.)
         DX          DY          DZ         /D/  (DEBYE)
     0.000000    0.000000   -0.000000    0.000000
 ...... END OF PROPERTY EVALUATION ......
 CPU     0: STEP CPU TIME=     0.00 TOTAL CPU TIME=        0.1 (    0.0 MIN)
 TOTAL WALL CLOCK TIME=        0.2 SECONDS, CPU UTILIZATION IS  30.43%

 DETERMINANT CI OPTIONS   NRNFG   NPFLG
 INTEGRAL TRANSFORMATION    1       0
 DIAGONALIZE HAMILTONIAN    1       0
 FORM 1E- DENSITY MATRIX    1       0
 FORM 2E- DENSITY MATRIX    0       0

     --------------------------------------------------
          AMES LABORATORY DETERMINANTAL FULL CI
     PROGRAM WRITTEN BY JOE IVANIC AND KLAUS RUEDENBERG
     --------------------------------------------------

 THE POINT GROUP                  =   C1      
 THE STATE SYMMETRY               =   A       
 NUMBER OF CORE ORBITALS          =    2
 NUMBER OF ACTIVE ORBITALS        =   44
 NUMBER OF ALPHA ELECTRONS        =    3 (   1 ACTIVE)
 NUMBER OF BETA ELECTRONS         =    3 (   1 ACTIVE)
 NUMBER OF OCCUPIED ORBITALS      =   46
 NUMBER OF CI STATES REQUESTED    =    3
 NUMBER OF CI STARTING VECTORS    =    3
 MAX. NO. OF CI EXPANSION VECTORS =   10
 SIZE OF INITIAL CI GUESS MATRIX  =  300
 MAX. NO. OF CI ITERS/STATE       =  100
 CI DIAGONALIZATION CRITERION     = 1.00E-06
 CI PROPERTIES WILL BE FOUND FOR ROOT NUMBER   1
 1E- DENSITY MATRIX OPTIONS ARE 1 0 0

 CORRELATION ENERGY ANALYSIS      =    F

 SYMMETRIES FOR THE   2 CORE,  44 ACTIVE ARE

     CORE= A     A   

   ACTIVE= A     A     A     A     A     A     A     A     A     A   
           A     A     A     A     A     A     A     A     A     A   
           A     A     A     A     A     A     A     A     A     A   
           A     A     A     A     A     A     A     A     A     A   
           A     A     A     A   

     --------------------------------------------
     PARTIAL TWO ELECTRON INTEGRAL TRANSFORMATION
     --------------------------------------------

 NUMBER OF CORE MOLECULAR ORBITALS     =    2
 NUMBER OF OCCUPIED MOLECULAR ORBITALS =   46
 TOTAL NUMBER OF MOLECULAR ORBITALS    =   46
 TOTAL NUMBER OF ATOMIC ORBITALS       =   50
 THRESHOLD FOR KEEPING TRANSFORMED 2E- INTEGRALS = 1.000E-09

 -------------------------------     ------------------------------
 DISTRIBUTED DATA TRANSFORMATION     PROGRAM WRITTEN BY G. FLETCHER
 -------------------------------     ------------------------------

 THE DISTRIBUTED MEMORY REQUIRED FOR THIS STEP IS MEMDDI=         3 MWORDS
 CREATING DISTRIBUTED STORAGE FOR [OCC OCC|OCC OCC] INTEGRALS
 DDI: Creating Array [0] - 1081 x 1081 = 1168561 words.
 CREATING WORKSPACE OF SIZE VVOO
 DDI: Creating Array [1] - 1275 x 1081 = 1378275 words.
 FOR   12 PROCESSORS, THE REPLICATED MEMORY NEEDED IS      257635 WORDS.

      DIRECT 4-INDEX TRANSFORMATION 
      SCHWARZ INEQUALITY TEST SKIPPED          0 INTEGRAL BLOCKS
 ----- FROZEN CORE ENERGY =       -16.0695000262
 ... END OF INTEGRAL TRANSFORMATION ...
 CPU     0: STEP CPU TIME=     0.09 TOTAL CPU TIME=        0.2 (    0.0 MIN)
 TOTAL WALL CLOCK TIME=        0.4 SECONDS, CPU UTILIZATION IS  44.44%

     --------------------------------------------------
          AMES LABORATORY DETERMINANTAL FULL CI
     PROGRAM WRITTEN BY JOE IVANIC AND KLAUS RUEDENBERG
     --------------------------------------------------

 THE NUMBER OF DETERMINANTS HAVING SPACE SYMMETRY A  
 IN POINT GROUP C1   WITH SZ=  0.0 IS           1936
 WHICH INCLUDES            990 CSFS WITH S=  0.0
 WHICH INCLUDES            946 CSFS WITH S=  1.0
 THE DETERMINANT FULL CI REQUIRES         1660796 WORDS
 INITIAL CI VECTOR GUESS TIME  :          0.0
 INITIAL FULL CI ITERATION TIME:          0.0

 ITERATION      ENERGY           GRADIENT
     0      -14.8892657064     0.07673127
     0      -14.8482673599     0.04510970
     0      -14.8451643102     0.04828781
 
     1      -14.8995297139     0.02153593
     1      -14.8529651773     0.01070712
     1      -14.8502239436     0.01031769
 
     2      -14.9006749221     0.00620032
     2      -14.8532563779     0.00320566
     2      -14.8505322813     0.00364241
 
     3      -14.9007563553     0.00294762
     3      -14.8532814711     0.00115235
     3      -14.8505683976     0.00147437
 
     4      -14.9007792983     0.00154558
     4      -14.8532863655     0.00040194
     4      -14.8505777385     0.00060157
 
     5      -14.9007847898     0.00079363
     5      -14.8532867786     0.00014912
     5      -14.8505786859     0.00019866
 
     6      -14.9007865739     0.00047300
     6      -14.8532868893     0.00009376
     6      -14.8505788652     0.00011783
 
     7      -14.9007870284     0.00021097
     7      -14.8532869119     0.00003113
     7      -14.8505789019     0.00004503
 
     8      -14.9007871575     0.00012701
     8      -14.8532869170     0.00002222
     8      -14.8505789116     0.00002600
 
     9      -14.9007871939     0.00006407
     9      -14.8532869182     0.00000779
     9      -14.8505789134     0.00000844
 
    10      -14.9007872057     0.00004004
    10      -14.8532869185     0.00000541
    10      -14.8505789137     0.00000527
 
    11      -14.9007872089     0.00001738
    11      -14.8532869186     0.00000177
    11      -14.8505789138     0.00000198
 
    12      -14.9007872098     0.00001084
    12      -14.8532869186     0.00000130
    12      -14.8505789138     0.00000120
 
    13      -14.9007872100     0.00000538
    13      -14.8532869186     0.00000045
    13      -14.8505789138     0.00000038
 

 CONVERGED STATE    2 ENERGY=      -14.8532869186 IN   13 ITERS


 CONVERGED STATE    3 ENERGY=      -14.8505789138 IN   13 ITERS

     0      -14.9007872100     0.00000538
     1      -14.9007872101     0.00000338
     2      -14.9007872102     0.00000067

 CONVERGED STATE    1 ENERGY=      -14.9007872102 IN   16 ITERS

 ALL STATES CONVERGED.

 CI EIGENVECTORS WILL BE LABELED IN GROUP=C1      
 PRINTING CI COEFFICIENTS LARGER THAN  0.100000

 STATE   1  ENERGY=       -14.9007872102  S=  0.00  SZ=  0.00  SPACE SYM=A   

                    ALPHA                     |                    BETA                      | COEFFICIENT
----------------------------------------------|----------------------------------------------|------------
 10000000000000000000000000000000000000000000 | 10000000000000000000000000000000000000000000 |   0.9506892
 00000000010000000000000000000000000000000000 | 00000000010000000000000000000000000000000000 |  -0.1008175
 00000000001000000000000000000000000000000000 | 00000000001000000000000000000000000000000000 |  -0.1008175

 STATE   2  ENERGY=       -14.8532869186  S=  1.00  SZ=  0.00  SPACE SYM=A   

                    ALPHA                     |                    BETA                      | COEFFICIENT
----------------------------------------------|----------------------------------------------|------------
 10000000000000000000000000000000000000000000 | 01000000000000000000000000000000000000000000 |   0.4993965
 01000000000000000000000000000000000000000000 | 10000000000000000000000000000000000000000000 |  -0.4993965
 10000000000000000000000000000000000000000000 | 00000100000000000000000000000000000000000000 |   0.3677475
 00000100000000000000000000000000000000000000 | 10000000000000000000000000000000000000000000 |  -0.3677475
 10000000000000000000000000000000000000000000 | 00000000000100000000000000000000000000000000 |   0.2463542
 00000000000100000000000000000000000000000000 | 10000000000000000000000000000000000000000000 |  -0.2463542
 10000000000000000000000000000000000000000000 | 00000000000000010000000000000000000000000000 |  -0.1660627
 00000000000000010000000000000000000000000000 | 10000000000000000000000000000000000000000000 |   0.1660627

 STATE   3  ENERGY=       -14.8505789138  S=  1.00  SZ=  0.00  SPACE SYM=A   

                    ALPHA                     |                    BETA                      | COEFFICIENT
----------------------------------------------|----------------------------------------------|------------
 10000000000000000000000000000000000000000000 | 00000000001000000000000000000000000000000000 |   0.4623831
 00000000001000000000000000000000000000000000 | 10000000000000000000000000000000000000000000 |  -0.4623831
 10000000000000000000000000000000000000000000 | 00100000000000000000000000000000000000000000 |   0.3200400
 00100000000000000000000000000000000000000000 | 10000000000000000000000000000000000000000000 |  -0.3200400
 10000000000000000000000000000000000000000000 | 00000000010000000000000000000000000000000000 |  -0.3156556
 00000000010000000000000000000000000000000000 | 10000000000000000000000000000000000000000000 |   0.3156556
 10000000000000000000000000000000000000000000 | 00000000000000000010000000000000000000000000 |  -0.2411449
 00000000000000000010000000000000000000000000 | 10000000000000000000000000000000000000000000 |   0.2411449
 ..... DONE WITH DETERMINANT CI COMPUTATION .....
 CPU     0: STEP CPU TIME=     0.12 TOTAL CPU TIME=        0.3 (    0.0 MIN)
 TOTAL WALL CLOCK TIME=        0.5 SECONDS, CPU UTILIZATION IS  50.91%

     ---------------------------
     ONE PARTICLE DENSITY MATRIX
     ---------------------------

 DENSITY MATRIX WILL BE SAVED FOR   1-TH STATE WITH S= 0.00

 CI EIGENSTATE   1 TOTAL ENERGY =      -14.9007872102

          NATURAL ORBITALS IN ATOMIC ORBITAL BASIS
          ----------------------------------------

                      1          2          3          4          5
                    2.0000     2.0000     1.8091     0.0642     0.0642
                     A          A          A          A          A   
    1  LI 1  S    0.708049   0.705911  -0.033710   0.000000   0.000000
    2  LI 1  S    0.001887  -0.004287   0.327104   0.000000   0.000000
    3  LI 1  S   -0.004761  -0.021249   0.234117   0.000000   0.000000
    4  LI 1  X    0.000000   0.000000   0.000000   0.482245   0.048640
    5  LI 1  Y    0.000000   0.000000   0.000000  -0.048640   0.482245
    6  LI 1  Z   -0.001496  -0.008838   0.108861   0.000000   0.000000
    7  LI 1  X    0.000000   0.000000   0.000000   0.081347   0.008205
    8  LI 1  Y    0.000000   0.000000   0.000000  -0.008205   0.081347
    9  LI 1  Z    0.000737  -0.005407  -0.017837   0.000000   0.000000
   10  LI 1 XX   -0.000471   0.001068  -0.013743   0.000000   0.000000
   11  LI 1 YY   -0.000471   0.001068  -0.013743   0.000000   0.000000
   12  LI 1 ZZ    0.000943  -0.002136   0.027485   0.000000   0.000000
   13  LI 1 XY   -0.000000  -0.000000   0.000000   0.000000   0.000000
   14  LI 1 XZ    0.000000   0.000000   0.000000   0.125410   0.012649
   15  LI 1 YZ    0.000000   0.000000   0.000000  -0.012649   0.125410
   16  LI 1  S    0.001122   0.004778   0.005461   0.000000   0.000000
   17  LI 1  X    0.000000   0.000000   0.000000  -0.006846  -0.000691
   18  LI 1  Y    0.000000   0.000000   0.000000   0.000691  -0.006846
   19  LI 1  Z   -0.000016   0.000874   0.017348   0.000000   0.000000
   20  LI 1 XX    0.000518   0.000623   0.021052   0.000000   0.000000
   21  LI 1 YY    0.000518   0.000623   0.021052   0.000000   0.000000
   22  LI 1 ZZ   -0.001037  -0.001246  -0.042103   0.000000   0.000000
   23  LI 1 XY    0.000000   0.000000   0.000000   0.000000   0.000000
   24  LI 1 XZ    0.000000   0.000000   0.000000   0.023973   0.002418
   25  LI 1 YZ    0.000000   0.000000   0.000000  -0.002418   0.023973
   26  LI 2  S    0.708049  -0.705911  -0.033710   0.000000   0.000000
   27  LI 2  S    0.001887   0.004287   0.327104   0.000000   0.000000
   28  LI 2  S   -0.004761   0.021249   0.234117   0.000000   0.000000
   29  LI 2  X    0.000000   0.000000   0.000000   0.482245   0.048640
   30  LI 2  Y    0.000000   0.000000   0.000000  -0.048640   0.482245
   31  LI 2  Z    0.001496  -0.008838  -0.108861   0.000000   0.000000
   32  LI 2  X    0.000000   0.000000   0.000000   0.081347   0.008205
   33  LI 2  Y    0.000000   0.000000   0.000000  -0.008205   0.081347
   34  LI 2  Z   -0.000737  -0.005407   0.017837   0.000000   0.000000
   35  LI 2 XX   -0.000471  -0.001068  -0.013743   0.000000   0.000000
   36  LI 2 YY   -0.000471  -0.001068  -0.013743   0.000000   0.000000
   37  LI 2 ZZ    0.000943   0.002136   0.027485   0.000000   0.000000
   38  LI 2 XY    0.000000   0.000000   0.000000   0.000000   0.000000
   39  LI 2 XZ    0.000000   0.000000   0.000000  -0.125410  -0.012649
   40  LI 2 YZ    0.000000   0.000000   0.000000   0.012649  -0.125410
   41  LI 2  S    0.001122  -0.004778   0.005461   0.000000   0.000000
   42  LI 2  X    0.000000   0.000000   0.000000  -0.006846  -0.000691
   43  LI 2  Y    0.000000   0.000000   0.000000   0.000691  -0.006846
   44  LI 2  Z    0.000016   0.000874  -0.017348   0.000000   0.000000
   45  LI 2 XX    0.000518  -0.000623   0.021052   0.000000   0.000000
   46  LI 2 YY    0.000518  -0.000623   0.021052   0.000000   0.000000
   47  LI 2 ZZ   -0.001037   0.001246  -0.042103   0.000000   0.000000
   48  LI 2 XY   -0.000000  -0.000000   0.000000   0.000000   0.000000
   49  LI 2 XZ    0.000000   0.000000   0.000000  -0.023973  -0.002418
   50  LI 2 YZ    0.000000   0.000000   0.000000   0.002418  -0.023973

                      6          7          8          9         10
                    0.0316     0.0303     0.0001     0.0001     0.0001
                     A          A          A          A          A   
    1  LI 1  S   -0.150158   0.069310   0.000000   0.000000  -0.886124
    2  LI 1  S   -0.796743   0.314123   0.000000   0.000000  -2.323245
    3  LI 1  S   -0.413205  -0.455821   0.000000   0.000000   1.665857
    4  LI 1  X    0.000000   0.000000  -0.288137   0.970121   0.000000
    5  LI 1  Y    0.000000   0.000000   0.970121   0.288137   0.000000
    6  LI 1  Z   -0.084488   0.497192   0.000000   0.000000  -1.814420
    7  LI 1  X    0.000000   0.000000   0.114792  -0.386489   0.000000
    8  LI 1  Y    0.000000   0.000000  -0.386489  -0.114792   0.000000
    9  LI 1  Z   -0.063904  -0.109450   0.000000   0.000000   0.409799
   10  LI 1 XX   -0.018277  -0.093937   0.000000   0.000000   0.076947
   11  LI 1 YY   -0.018277  -0.093937   0.000000   0.000000   0.076947
   12  LI 1 ZZ    0.036555   0.187873   0.000000   0.000000  -0.153894
   13  LI 1 XY    0.000000   0.000000   0.000000   0.000000   0.000000
   14  LI 1 XZ    0.000000   0.000000  -0.233257   0.785350   0.000000
   15  LI 1 YZ    0.000000   0.000000   0.785350   0.233257   0.000000
   16  LI 1  S    0.002983  -0.044021   0.000000   0.000000   0.228969
   17  LI 1  X    0.000000   0.000000  -0.047866   0.161157   0.000000
   18  LI 1  Y    0.000000   0.000000   0.161157   0.047866   0.000000
   19  LI 1  Z    0.003725   0.026117   0.000000   0.000000   0.023471
   20  LI 1 XX   -0.008646  -0.000153   0.000000   0.000000   0.109106
   21  LI 1 YY   -0.008646  -0.000153   0.000000   0.000000   0.109106
   22  LI 1 ZZ    0.017291   0.000306   0.000000   0.000000  -0.218213
   23  LI 1 XY    0.000000   0.000000   0.000000   0.000000   0.000000
   24  LI 1 XZ    0.000000   0.000000   0.143977  -0.484754   0.000000
   25  LI 1 YZ    0.000000   0.000000  -0.484754  -0.143977   0.000000
   26  LI 2  S    0.150158   0.069310   0.000000   0.000000   0.886124
   27  LI 2  S    0.796743   0.314123   0.000000   0.000000   2.323245
   28  LI 2  S    0.413205  -0.455821   0.000000   0.000000  -1.665857
   29  LI 2  X    0.000000   0.000000   0.288137  -0.970121   0.000000
   30  LI 2  Y    0.000000   0.000000  -0.970121  -0.288137   0.000000
   31  LI 2  Z   -0.084488  -0.497192   0.000000   0.000000  -1.814420
   32  LI 2  X    0.000000   0.000000  -0.114792   0.386489   0.000000
   33  LI 2  Y    0.000000   0.000000   0.386489   0.114792   0.000000
   34  LI 2  Z   -0.063904   0.109450   0.000000   0.000000   0.409799
   35  LI 2 XX    0.018277  -0.093937   0.000000   0.000000  -0.076947
   36  LI 2 YY    0.018277  -0.093937   0.000000   0.000000  -0.076947
   37  LI 2 ZZ   -0.036555   0.187873   0.000000   0.000000   0.153894
   38  LI 2 XY    0.000000   0.000000   0.000000   0.000000   0.000000
   39  LI 2 XZ    0.000000   0.000000  -0.233257   0.785350   0.000000
   40  LI 2 YZ    0.000000   0.000000   0.785350   0.233257   0.000000
   41  LI 2  S   -0.002983  -0.044021   0.000000   0.000000  -0.228969
   42  LI 2  X    0.000000   0.000000   0.047866  -0.161157   0.000000
   43  LI 2  Y    0.000000   0.000000  -0.161157  -0.047866   0.000000
   44  LI 2  Z    0.003725  -0.026117   0.000000   0.000000   0.023471
   45  LI 2 XX    0.008646  -0.000153   0.000000   0.000000  -0.109106
   46  LI 2 YY    0.008646  -0.000153   0.000000   0.000000  -0.109106
   47  LI 2 ZZ   -0.017291   0.000306   0.000000   0.000000   0.218213
   48  LI 2 XY    0.000000   0.000000   0.000000   0.000000   0.000000
   49  LI 2 XZ    0.000000   0.000000   0.143977  -0.484754   0.000000
[...]
   34  LI 2  Z   -1.782377   1.924232   0.000000   0.000000   3.324083
   35  LI 2 XX    0.893846  -0.236847  -1.298256   0.200725   0.453828
   36  LI 2 YY    0.893846  -0.236847   1.298256  -0.200725   0.453828
   37  LI 2 ZZ   -1.787693   0.473693   0.000000   0.000000  -0.907657
   38  LI 2 XY    0.000000   0.000000   0.231778   1.499097   0.000000
   39  LI 2 XZ    0.000000   0.000000   0.000000   0.000000   0.000000
   40  LI 2 YZ    0.000000   0.000000   0.000000   0.000000   0.000000
   41  LI 2  S    4.577630  -0.073496   0.000000   0.000000  -0.381992
   42  LI 2  X    0.000000   0.000000   0.000000   0.000000   0.000000
   43  LI 2  Y    0.000000   0.000000   0.000000   0.000000   0.000000
   44  LI 2  Z   -0.581607  -0.796245   0.000000   0.000000  -0.113922
   45  LI 2 XX   -0.891497   0.837849   1.842030  -0.284800  -0.194956
   46  LI 2 YY   -0.891497   0.837849  -1.842030   0.284800  -0.194956
   47  LI 2 ZZ    1.782994  -1.675698   0.000000   0.000000   0.389912
   48  LI 2 XY    0.000000   0.000000  -0.328858  -2.126993   0.000000
   49  LI 2 XZ    0.000000   0.000000   0.000000   0.000000   0.000000
   50  LI 2 YZ    0.000000   0.000000   0.000000   0.000000   0.000000

                     31         32         33         34         35
                    0.0000     0.0000     0.0000     0.0000     0.0000
                     A          A          A          A          A   
    1  LI 1  S    0.000000   0.000000  -0.265299   0.000000   0.000000
    2  LI 1  S    0.000000   0.000000  -0.807769   0.000000   0.000000
    3  LI 1  S    0.000000   0.000000  12.821151   0.000000   0.000000
    4  LI 1  X   -0.010262   0.236424   0.000000   0.957684  -0.146970
    5  LI 1  Y    0.236424   0.010262   0.000000   0.146970   0.957684
    6  LI 1  Z    0.000000   0.000000   0.926308   0.000000   0.000000
    7  LI 1  X    0.084975  -1.957853   0.000000   1.452902  -0.222969
    8  LI 1  Y   -1.957853  -0.084975   0.000000   0.222969   1.452902
    9  LI 1  Z    0.000000   0.000000   5.263364   0.000000   0.000000
   10  LI 1 XX    0.000000   0.000000   0.836397   0.000000   0.000000
   11  LI 1 YY    0.000000   0.000000   0.836397   0.000000   0.000000
   12  LI 1 ZZ    0.000000   0.000000  -1.672795   0.000000   0.000000
   13  LI 1 XY    0.000000   0.000000   0.000000   0.000000   0.000000
   14  LI 1 XZ    0.014344  -0.330417   0.000000  -1.925856   0.295552
   15  LI 1 YZ   -0.330417  -0.014344   0.000000  -0.295552  -1.925856
   16  LI 1  S    0.000000   0.000000   2.304540   0.000000   0.000000
   17  LI 1  X   -0.032159   0.741126   0.000000  -0.481261   0.073855
   18  LI 1  Y    0.741126   0.032159   0.000000  -0.073855  -0.481261
   19  LI 1  Z    0.000000   0.000000   0.085697   0.000000   0.000000
   20  LI 1 XX    0.000000   0.000000  -1.187482   0.000000   0.000000
   21  LI 1 YY    0.000000   0.000000  -1.187482   0.000000   0.000000
   22  LI 1 ZZ    0.000000   0.000000   2.374964   0.000000   0.000000
   23  LI 1 XY    0.000000   0.000000   0.000000   0.000000   0.000000
   24  LI 1 XZ    0.013456  -0.310071   0.000000   3.274245  -0.502480
   25  LI 1 YZ   -0.310071  -0.013456   0.000000   0.502480   3.274245
   26  LI 2  S    0.000000   0.000000   0.265299   0.000000   0.000000
   27  LI 2  S    0.000000   0.000000   0.807769   0.000000   0.000000
   28  LI 2  S    0.000000   0.000000 -12.821151   0.000000   0.000000
   29  LI 2  X    0.010262  -0.236424   0.000000  -0.957684   0.146970
   30  LI 2  Y   -0.236424  -0.010262   0.000000  -0.146970  -0.957684
   31  LI 2  Z    0.000000   0.000000   0.926308   0.000000   0.000000
   32  LI 2  X   -0.084975   1.957853   0.000000  -1.452902   0.222969
   33  LI 2  Y    1.957853   0.084975   0.000000  -0.222969  -1.452902
   34  LI 2  Z    0.000000   0.000000   5.263364   0.000000   0.000000
   35  LI 2 XX    0.000000   0.000000  -0.836397   0.000000   0.000000
   36  LI 2 YY    0.000000   0.000000  -0.836397   0.000000   0.000000
   37  LI 2 ZZ    0.000000   0.000000   1.672795   0.000000   0.000000
   38  LI 2 XY    0.000000   0.000000   0.000000   0.000000   0.000000
   39  LI 2 XZ    0.014344  -0.330417   0.000000  -1.925856   0.295552
   40  LI 2 YZ   -0.330417  -0.014344   0.000000  -0.295552  -1.925856
   41  LI 2  S    0.000000   0.000000  -2.304540   0.000000   0.000000
   42  LI 2  X    0.032159  -0.741126   0.000000   0.481261  -0.073855
   43  LI 2  Y   -0.741126  -0.032159   0.000000   0.073855   0.481261
   44  LI 2  Z    0.000000   0.000000   0.085697   0.000000   0.000000
   45  LI 2 XX    0.000000   0.000000   1.187482   0.000000   0.000000
   46  LI 2 YY    0.000000   0.000000   1.187482   0.000000   0.000000
   47  LI 2 ZZ    0.000000   0.000000  -2.374964   0.000000   0.000000
   48  LI 2 XY    0.000000   0.000000   0.000000   0.000000   0.000000
   49  LI 2 XZ    0.013456  -0.310071   0.000000   3.274245  -0.502480
   50  LI 2 YZ   -0.310071  -0.013456   0.000000   0.502480   3.274245

                     36         37         38         39         40
                    0.0000     0.0000     0.0000     0.0000     0.0000
                     A          A          A          A          A   
    1  LI 1  S    0.749950  -0.006380  -0.014196   0.000000   0.000000
    2  LI 1  S    1.774748   0.011204  -0.053150   0.000000   0.000000
    3  LI 1  S   -1.771662  -0.773332   0.841412   0.000000   0.000000
    4  LI 1  X    0.000000   0.000000   0.000000   0.165319  -0.285847
    5  LI 1  Y    0.000000   0.000000   0.000000  -0.285847  -0.165319
    6  LI 1  Z   -0.458948   0.127449  -0.034294   0.000000   0.000000
    7  LI 1  X    0.000000   0.000000   0.000000  -0.227874   0.394012
    8  LI 1  Y    0.000000   0.000000   0.000000   0.394012   0.227874
    9  LI 1  Z    0.188022   0.162476  -0.549738   0.000000   0.000000
   10  LI 1 XX   -0.522607   0.273431  -0.183089   0.000000   0.000000
   11  LI 1 YY   -0.522607   0.273431  -0.183089   0.000000   0.000000
   12  LI 1 ZZ    1.045213  -0.546861   0.366178   0.000000   0.000000
   13  LI 1 XY    0.000000   0.000000   0.000000   0.000000   0.000000
   14  LI 1 XZ    0.000000   0.000000   0.000000  -0.414134   0.716061
   15  LI 1 YZ    0.000000   0.000000   0.000000   0.716061   0.414134
   16  LI 1  S    0.424638   0.335607  -1.054479   0.000000   0.000000
   17  LI 1  X    0.000000   0.000000   0.000000  -0.080249   0.138749
   18  LI 1  Y    0.000000   0.000000   0.000000   0.138749   0.080249
   19  LI 1  Z    0.114011   1.707262   1.452483   0.000000   0.000000
   20  LI 1 XX    0.842135  -0.371096   0.252297   0.000000   0.000000
   21  LI 1 YY    0.842135  -0.371096   0.252297   0.000000   0.000000
   22  LI 1 ZZ   -1.684270   0.742192  -0.504595   0.000000   0.000000
   23  LI 1 XY    0.000000   0.000000   0.000000   0.000000   0.000000
   24  LI 1 XZ    0.000000   0.000000   0.000000   0.450383  -0.778738
   25  LI 1 YZ    0.000000   0.000000   0.000000  -0.778738  -0.450383
   26  LI 2  S    0.749950  -0.006380  -0.014196   0.000000   0.000000
   27  LI 2  S    1.774748   0.011204  -0.053150   0.000000   0.000000
   28  LI 2  S   -1.771662  -0.773332   0.841412   0.000000   0.000000
   29  LI 2  X    0.000000   0.000000   0.000000   0.165319  -0.285847
   30  LI 2  Y    0.000000   0.000000   0.000000  -0.285847  -0.165319
   31  LI 2  Z    0.458948  -0.127449   0.034294   0.000000   0.000000
   32  LI 2  X    0.000000   0.000000   0.000000  -0.227874   0.394012
   33  LI 2  Y    0.000000   0.000000   0.000000   0.394012   0.227874
   34  LI 2  Z   -0.188022  -0.162476   0.549738   0.000000   0.000000
   35  LI 2 XX   -0.522607   0.273431  -0.183089   0.000000   0.000000
   36  LI 2 YY   -0.522607   0.273431  -0.183089   0.000000   0.000000
   37  LI 2 ZZ    1.045213  -0.546861   0.366178   0.000000   0.000000
   38  LI 2 XY    0.000000   0.000000   0.000000   0.000000   0.000000
   39  LI 2 XZ    0.000000   0.000000   0.000000   0.414134  -0.716061
   40  LI 2 YZ    0.000000   0.000000   0.000000  -0.716061  -0.414134
   41  LI 2  S    0.424638   0.335607  -1.054479   0.000000   0.000000
   42  LI 2  X    0.000000   0.000000   0.000000  -0.080249   0.138749
   43  LI 2  Y    0.000000   0.000000   0.000000   0.138749   0.080249
   44  LI 2  Z   -0.114011  -1.707262  -1.452483   0.000000   0.000000
   45  LI 2 XX    0.842135  -0.371096   0.252297   0.000000   0.000000
   46  LI 2 YY    0.842135  -0.371096   0.252297   0.000000   0.000000
   47  LI 2 ZZ   -1.684270   0.742192  -0.504595   0.000000   0.000000
   48  LI 2 XY    0.000000   0.000000   0.000000   0.000000   0.000000
   49  LI 2 XZ    0.000000   0.000000   0.000000  -0.450383   0.778738
   50  LI 2 YZ    0.000000   0.000000   0.000000   0.778738   0.450383

                     41         42         43         44         45
                    0.0000     0.0000     0.0000     0.0000     0.0000
                     A          A          A          A          A   
    1  LI 1  S    0.000000   0.000000   0.007810  -0.016014   0.000000
    2  LI 1  S    0.000000   0.000000   0.019469  -0.027324   0.000000
    3  LI 1  S    0.000000   0.000000  -7.049096  -1.554455   0.000000
    4  LI 1  X   -0.129148   0.176119   0.000000   0.000000   0.028420
    5  LI 1  Y    0.176119   0.129148   0.000000   0.000000   0.001183
    6  LI 1  Z    0.000000   0.000000  -0.103654  -0.057502   0.000000
    7  LI 1  X    0.352870  -0.481207   0.000000   0.000000  -0.578878
    8  LI 1  Y   -0.481207  -0.352870   0.000000   0.000000  -0.024094
    9  LI 1  Z    0.000000   0.000000  -4.946011  -1.293129   0.000000
   10  LI 1 XX    0.000000   0.000000  -0.128162  -0.065542   0.000000
   11  LI 1 YY    0.000000   0.000000  -0.128162  -0.065542   0.000000
   12  LI 1 ZZ    0.000000   0.000000   0.256324   0.131084   0.000000
   13  LI 1 XY    0.000000   0.000000   0.000000   0.000000   0.000000
   14  LI 1 XZ    0.296857  -0.404826   0.000000   0.000000   0.032149
   15  LI 1 YZ   -0.404826  -0.296858   0.000000   0.000000   0.001338
   16  LI 1  S    0.000000   0.000000 -13.547147  -9.367016   0.000000
   17  LI 1  X   -0.367210   0.500759   0.000000   0.000000   3.006327
   18  LI 1  Y    0.500759   0.367210   0.000000   0.000000   0.125158
   19  LI 1  Z    0.000000   0.000000  -1.634681  -2.080694   0.000000
   20  LI 1 XX    0.000000   0.000000   0.271054   0.110249   0.000000
   21  LI 1 YY    0.000000   0.000000   0.271054   0.110249   0.000000
   22  LI 1 ZZ    0.000000   0.000000  -0.542108  -0.220497   0.000000
   23  LI 1 XY    0.000000   0.000000   0.000000   0.000000   0.000000
   24  LI 1 XZ   -0.360078   0.491040   0.000000   0.000000  -0.116176
   25  LI 1 YZ    0.491040   0.360078   0.000000   0.000000  -0.004834
   26  LI 2  S    0.000000   0.000000  -0.007810   0.016014   0.000000
   27  LI 2  S    0.000000   0.000000  -0.019469   0.027324   0.000000
   28  LI 2  S    0.000000   0.000000   7.049096   1.554455   0.000000
   29  LI 2  X   -0.129148   0.176119   0.000000   0.000000  -0.028420
   30  LI 2  Y    0.176119   0.129148   0.000000   0.000000  -0.001183
   31  LI 2  Z    0.000000   0.000000  -0.103654  -0.057502   0.000000
   32  LI 2  X    0.352870  -0.481207   0.000000   0.000000   0.578878
   33  LI 2  Y   -0.481207  -0.352870   0.000000   0.000000   0.024094
   34  LI 2  Z    0.000000   0.000000  -4.946011  -1.293129   0.000000
   35  LI 2 XX    0.000000   0.000000   0.128162   0.065542   0.000000
   36  LI 2 YY    0.000000   0.000000   0.128162   0.065542   0.000000
   37  LI 2 ZZ    0.000000   0.000000  -0.256324  -0.131084   0.000000
   38  LI 2 XY    0.000000   0.000000   0.000000   0.000000   0.000000
   39  LI 2 XZ   -0.296857   0.404826   0.000000   0.000000   0.032149
   40  LI 2 YZ    0.404826   0.296858   0.000000   0.000000   0.001338
   41  LI 2  S    0.000000   0.000000  13.547147   9.367016   0.000000
   42  LI 2  X   -0.367210   0.500759   0.000000   0.000000  -3.006327
   43  LI 2  Y    0.500759   0.367210   0.000000   0.000000  -0.125158
   44  LI 2  Z    0.000000   0.000000  -1.634681  -2.080694   0.000000
   45  LI 2 XX    0.000000   0.000000  -0.271054  -0.110249   0.000000
   46  LI 2 YY    0.000000   0.000000  -0.271054  -0.110249   0.000000
   47  LI 2 ZZ    0.000000   0.000000   0.542108   0.220497   0.000000
   48  LI 2 XY    0.000000   0.000000   0.000000   0.000000   0.000000
   49  LI 2 XZ    0.360078  -0.491040   0.000000   0.000000  -0.116176
   50  LI 2 YZ   -0.491040  -0.360078   0.000000   0.000000  -0.004834

                     46
                    0.0000
                     A   
    1  LI 1  S    0.000000
    2  LI 1  S    0.000000
    3  LI 1  S    0.000000
    4  LI 1  X   -0.001183
    5  LI 1  Y    0.028420
    6  LI 1  Z    0.000000
    7  LI 1  X    0.024094
    8  LI 1  Y   -0.578878
    9  LI 1  Z    0.000000
   10  LI 1 XX    0.000000
   11  LI 1 YY    0.000000
   12  LI 1 ZZ    0.000000
   13  LI 1 XY    0.000000
   14  LI 1 XZ   -0.001338
   15  LI 1 YZ    0.032149
   16  LI 1  S    0.000000
   17  LI 1  X   -0.125158
   18  LI 1  Y    3.006327
   19  LI 1  Z    0.000000
   20  LI 1 XX    0.000000
   21  LI 1 YY    0.000000
   22  LI 1 ZZ    0.000000
   23  LI 1 XY    0.000000
   24  LI 1 XZ    0.004834
   25  LI 1 YZ   -0.116176
   26  LI 2  S    0.000000
   27  LI 2  S    0.000000
   28  LI 2  S    0.000000
   29  LI 2  X    0.001183
   30  LI 2  Y   -0.028420
   31  LI 2  Z    0.000000
   32  LI 2  X   -0.024094
   33  LI 2  Y    0.578878
   34  LI 2  Z    0.000000
   35  LI 2 XX    0.000000
   36  LI 2 YY    0.000000
   37  LI 2 ZZ    0.000000
   38  LI 2 XY    0.000000
   39  LI 2 XZ   -0.001338
   40  LI 2 YZ    0.032149
   41  LI 2  S    0.000000
   42  LI 2  X    0.125158
   43  LI 2  Y   -3.006327
   44  LI 2  Z    0.000000
   45  LI 2 XX    0.000000
   46  LI 2 YY    0.000000
   47  LI 2 ZZ    0.000000
   48  LI 2 XY    0.000000
   49  LI 2 XZ    0.004834
   50  LI 2 YZ   -0.116176
 ..... DONE WITH ONE PARTICLE DENSITY MATRIX .....
 CPU     0: STEP CPU TIME=     0.01 TOTAL CPU TIME=        0.3 (    0.0 MIN)
 TOTAL WALL CLOCK TIME=        0.6 SECONDS, CPU UTILIZATION IS  51.79%

     --------------------------------------------------------
     ALDET CI PROPERTIES...FOR THE WAVEFUNCTION OF STATE    1
               USING THE EXPECTATION VALUE DENSITY
     --------------------------------------------------------

          -----------------
          ENERGY COMPONENTS
          -----------------

         WAVEFUNCTION NORMALIZATION =       1.0000000000

                ONE ELECTRON ENERGY =     -23.1631818923
                TWO ELECTRON ENERGY =       6.4651889300
           NUCLEAR REPULSION ENERGY =       1.7972057521
                                      ------------------
                       TOTAL ENERGY =     -14.9007872102

 ELECTRON-ELECTRON POTENTIAL ENERGY =       6.4651889300
  NUCLEUS-ELECTRON POTENTIAL ENERGY =     -38.0926099906
   NUCLEUS-NUCLEUS POTENTIAL ENERGY =       1.7972057521
                                      ------------------
             TOTAL POTENTIAL ENERGY =     -29.8302153085
               TOTAL KINETIC ENERGY =      14.9294280983
                 VIRIAL RATIO (V/T) =       1.9980815817

          ---------------------------------------
          MULLIKEN AND LOWDIN POPULATION ANALYSES
          ---------------------------------------

               ----- POPULATIONS IN EACH AO -----
                             MULLIKEN      LOWDIN
              1  LI 1  S      1.99945     1.85331
              2  LI 1  S      0.48998     0.27371
              3  LI 1  S      0.36612     0.18344
              4  LI 1  X      0.02463     0.02011
              5  LI 1  Y      0.02463     0.02011
              6  LI 1  Z      0.08205     0.07943
              7  LI 1  X      0.00346     0.00628
              8  LI 1  Y      0.00346     0.00628
              9  LI 1  Z     -0.01284     0.04152
             10  LI 1 XX      0.00796     0.06028
             11  LI 1 YY      0.00003     0.06028
             12  LI 1 ZZ      0.00003     0.10515
             13  LI 1 XY      0.00343     0.00003
             14  LI 1 XZ      0.00343     0.00269
             15  LI 1 YZ      0.00000     0.00269
             16  LI 1  S      0.00716     0.06184
             17  LI 1  X     -0.00010     0.00019
             18  LI 1  Y     -0.00010     0.00019
             19  LI 1  Z      0.00525     0.00464
             20  LI 1 XX     -0.00952     0.05145
             21  LI 1 YY      0.00001     0.05145
             22  LI 1 ZZ      0.00001     0.10916
             23  LI 1 XY      0.00073     0.00002
             24  LI 1 XZ      0.00073     0.00289
             25  LI 1 YZ      0.00000     0.00289
             26  LI 2  S      1.99945     1.85331
             27  LI 2  S      0.48998     0.27371
             28  LI 2  S      0.36612     0.18344
             29  LI 2  X      0.02463     0.02011
             30  LI 2  Y      0.02463     0.02011
             31  LI 2  Z      0.08205     0.07943
             32  LI 2  X      0.00346     0.00628
             33  LI 2  Y      0.00346     0.00628
             34  LI 2  Z     -0.01284     0.04152
             35  LI 2 XX      0.00796     0.06028
             36  LI 2 YY      0.00003     0.06028
             37  LI 2 ZZ      0.00003     0.10515
             38  LI 2 XY      0.00343     0.00003
             39  LI 2 XZ      0.00343     0.00269
             40  LI 2 YZ      0.00000     0.00269
             41  LI 2  S      0.00716     0.06184
             42  LI 2  X     -0.00010     0.00019
             43  LI 2  Y     -0.00010     0.00019
             44  LI 2  Z      0.00525     0.00464
             45  LI 2 XX     -0.00952     0.05145
             46  LI 2 YY      0.00001     0.05145
             47  LI 2 ZZ      0.00001     0.10916
             48  LI 2 XY      0.00073     0.00002
             49  LI 2 XZ      0.00073     0.00289
             50  LI 2 YZ      0.00000     0.00289

          ----- MULLIKEN ATOMIC OVERLAP POPULATIONS -----
          (OFF-DIAGONAL ELEMENTS NEED TO BE MULTIPLIED BY 2)

             1           2

    1    2.6307172
    2    0.3692828   2.6307172

          TOTAL MULLIKEN AND LOWDIN ATOMIC POPULATIONS
       ATOM         MULL.POP.    CHARGE          LOW.POP.     CHARGE
    1 LI            3.000000   -0.000000         3.000000   -0.000000
    2 LI            3.000000    0.000000         3.000000    0.000000

          MULLIKEN SPHERICAL HARMONIC POPULATIONS
       ATOM           S       P       D      F      G      H      I    TOTAL
    1 LI            2.86    0.13    0.01   0.00   0.00   0.00   0.00    3.00
    2 LI            2.86    0.13    0.01   0.00   0.00   0.00   0.00    3.00

          ---------------------
          ELECTROSTATIC MOMENTS
          ---------------------

 POINT   1           X           Y           Z (BOHR)    CHARGE
                 0.000000    0.000000    2.503887       -0.00 (A.U.)
         DX          DY          DZ         /D/  (DEBYE)
     0.000000    0.000000    0.000000    0.000000
 ...... END OF PROPERTY EVALUATION ......
 CPU     0: STEP CPU TIME=     0.01 TOTAL CPU TIME=        0.3 (    0.0 MIN)
 TOTAL WALL CLOCK TIME=        0.6 SECONDS, CPU UTILIZATION IS  49.18%

 AN AIMPAC INPUT FILE IS BEING WRITTEN TO FILE   7

               1661693  WORDS OF DYNAMIC MEMORY USED
 EXECUTION OF GAMESS TERMINATED NORMALLY Mon Dec  3 23:39:55 2018
 DDI: 1978808 bytes (1.9 MB / 0 MWords) used by master data server.

 ----------------------------------------
 CPU timing information for all processes
 ========================================
 0: 0.240 + 0.72 = 0.312
 1: 0.240 + 0.24 = 0.264
 2: 0.220 + 0.32 = 0.252
 3: 0.236 + 0.36 = 0.272
 4: 0.220 + 0.40 = 0.260
 5: 0.256 + 0.36 = 0.292
 6: 0.224 + 0.44 = 0.268
 7: 0.260 + 0.32 = 0.292
 8: 0.228 + 0.24 = 0.252
 9: 0.268 + 0.24 = 0.292
 10: 0.224 + 0.36 = 0.260
 11: 0.260 + 0.28 = 0.288
 ----------------------------------------
 ddikick.x: exited gracefully.
