System: ('Linux', 'silicio', '3.16.0-4-amd64', '#1 SMP Debian 3.16.51-3 (2017-12-13)', 'x86_64', '')  Threads 12
Python 2.7.14 (default, Apr  9 2018, 16:34:43) 
[GCC 7.3.0]
numpy 1.15.0  scipy 1.1.0
Date: Fri Aug 10 21:07:43 2018
PySCF version 1.5.2
PySCF path  /home/jluis/src/pyscf/pyscf
GIT ORIG_HEAD 2687853e253f5eea52524d158888a4513808b96e
GIT HEAD      ref: refs/heads/master
GIT master branch  b542c01b5c1fe9c958fb5788df071e2bb87a7e31

[ENV] PYSCF_TMPDIR /scratch-ssd/jluis
[CONFIG] conf_file None
[INPUT] verbose = 4
[INPUT] num. atoms = 8
[INPUT] num. electrons = 48
[INPUT] charge = 0
[INPUT] spin (= nelec alpha-beta = 2S) = 0
[INPUT] symmetry 0 subgroup None
[INPUT] Mole.unit = angstrom
[INPUT]  1 C      0.000000000000   0.000000000000   0.000000000000 AA    0.000000000000   0.000000000000   0.000000000000 Bohr
[INPUT]  2 C      0.891700000000   0.891700000000   0.891700000000 AA    1.685068785275   1.685068785275   1.685068785275 Bohr
[INPUT]  3 C      1.783400000000   1.783400000000   0.000000000000 AA    3.370137570549   3.370137570549   0.000000000000 Bohr
[INPUT]  4 C      2.675100000000   2.675100000000   0.891700000000 AA    5.055206355824   5.055206355824   1.685068785275 Bohr
[INPUT]  5 C      1.783400000000   0.000000000000   1.783400000000 AA    3.370137570549   0.000000000000   3.370137570549 Bohr
[INPUT]  6 C      2.675100000000   0.891700000000   2.675100000000 AA    5.055206355824   1.685068785275   5.055206355824 Bohr
[INPUT]  7 C      0.000000000000   1.783400000000   1.783400000000 AA    0.000000000000   3.370137570549   3.370137570549 Bohr
[INPUT]  8 C      0.891700000000   2.675100000000   2.675100000000 AA    1.685068785275   5.055206355824   5.055206355824 Bohr

nuclear repulsion = -115.084162310624
number of shells = 48
number of NR pGTOs = 192
number of NR cGTOs = 112
basis = def2-svp
ecp = {}
CPU time:         4.20
lattice vectors  a1 [6.740275141, 0.000000000, 0.000000000]
                 a2 [0.000000000, 6.740275141, 0.000000000]
                 a3 [0.000000000, 0.000000000, 6.740275141]
dimension = 3
Cell volume = 306.22
rcut = 18.287612365640392 (nimgs = [3 3 3])
lattice sum = 275 cells
precision = 1e-08
pseudo = None
ke_cutoff = 12119.909447131999
    = [335 335 335] mesh (37595375 PWs)
ew_eta = 3.5115
ew_cut = 2.014018394115346 (nimgs = [1 1 1])


******** <class 'pyscf.pbc.scf.hf.RHF'> flags ********
method = RHF-SCF
initial guess = minao
damping factor = 0
level shift factor = 0
DIIS = <class 'pyscf.scf.diis.CDIIS'>
DIIS start cycle = 1
DIIS space = 8
SCF tol = 1e-09
SCF gradient tol = None
max. SCF cycles = 150
direct_scf = False
chkfile to save SCF result = gamma.chk
max_memory 64000 MB (current use 130 MB)
******** PBC SCF flags ********
kpt = [0. 0. 0.]
Exchange divergence treatment (exxdiv) = None
DF object = <pyscf.pbc.df.mdf.MDF object at 0x2b135605ca90>
Set gradient conv threshold to 3.16228e-05


******** <class 'pyscf.pbc.df.mdf.MDF'> flags ********
mesh = [10, 10, 10] (1000 PWs)
auxbasis = def2-svp-jkfit
eta = 0.20145903881804622
exp_to_discard = 0.20145903881804622
_cderi_to_save = gamma.h5
len(kpts) = 1
Drop 32 primitive fitting functions
make aux basis, num shells = 168, num cGTOs = 504
auxcell.rcut 11.648273354176391
init E= -297.303059516555
  HOMO = 0.724478399512887  LUMO = 0.889313271015951
cycle= 1 E= -292.5027290959  delta_E=  4.8  |g|= 0.366  |ddm|= 5.53
  HOMO = 0.754873030009105  LUMO = 0.93908583180904
cycle= 2 E= -292.53649649019  delta_E= -0.0338  |g|= 0.0446  |ddm|= 2.04
  HOMO = 0.748159588372292  LUMO = 0.940353258082894
cycle= 3 E= -292.536506960332  delta_E= -1.05e-05  |g|= 0.0435  |ddm|= 0.312
  HOMO = 0.748338837673073  LUMO = 0.941092649682909
cycle= 4 E= -292.53697181141  delta_E= -0.000465  |g|= 0.00265  |ddm|= 0.141
  HOMO = 0.748642916119695  LUMO = 0.941152828619155
cycle= 5 E= -292.536973312412  delta_E= -1.5e-06  |g|= 0.000295  |ddm|= 0.0117
  HOMO = 0.748628884733669  LUMO = 0.94115769436077
cycle= 6 E= -292.536973332364  delta_E= -2e-08  |g|= 6.09e-05  |ddm|= 0.0019
  HOMO = 0.748625288747266  LUMO = 0.941159279784256
cycle= 7 E= -292.536973333233  delta_E= -8.69e-10  |g|= 1.07e-05  |ddm|= 0.000355
  HOMO = 0.748625637919886  LUMO = 0.941159237514357
Extra cycle  E= -292.536973333224  delta_E= 8.58e-12  |g|= 1.23e-05  |ddm|= 7e-05
converged SCF energy = -292.536973333224
Population :    48.000000
Kinetic energy :   301.488194
Nuclear Repulsion energy :  -115.084162
1e-energy :  -204.640714
Coulomb Pairs :  1152.000000
XC Pairs :    24.000000
Pairs :  1128.000000
J energy :    59.430364
XC energy :   -32.242462
EE energy :    27.187903
('J', 59.43036423182917)
('K', 32.24246156962089)
Total energy :  -292.536973
################# 0.0
[[0. 0. 0.]] [111.85280261] [[-2.66655651e-06]
 [-2.66653757e-06]
 [-2.66653672e-06]]
################# 0.5
[[0.5 0.  0. ]] [0.63605181] [[-4.35967386e+00]
 [ 6.27139650e-07]
 [ 6.27139809e-07]]
################# 1.0
[[1. 0. 0.]] [0.20350212] [[-2.28325856e-01]
 [ 2.12141269e-07]
 [ 2.12141314e-07]]
################# 1.8
[[1.8 0.  0. ]] [0.06864001] [[-1.08471228e-01]
 [ 1.82096384e-08]
 [ 1.82096648e-08]]
################# 3.6
[[3.6 0.  0. ]] [0.00755714] [[ 7.00981402e-03]
 [-3.14609470e-09]
 [-3.14595343e-09]]
