#INFO: **** input file is /home/jluis/src/git/scripts/mp2/regularization/h2.py ****
#!/usr/bin/env python

from pyscf import gto, scf, mcscf

name = 'h2'

mol = gto.Mole()
mol.atom = '''
H  0.0000  0.0000  0.0000
H  0.0000  0.0000  2.0000
'''
mol.basis = 'aug-cc-pvdz'
mol.verbose = 4
mol.spin = 0
mol.symmetry = 1
mol.charge = 0
mol.build()

mf = scf.RHF(mol)
mf.max_cycle = 150
mf.chkfile = name+'.chk'
mf.level_shift = 0.5
mf.kernel()

ncas = mf.mo_coeff.shape[1]
nelecas = 2
mc = mcscf.CASCI(mf, ncas, nelecas)
mc.kernel()

#INFO: ******************** input file end ********************


System: ('Linux', 'silicio', '3.16.0-4-amd64', '#1 SMP Debian 3.16.51-3 (2017-12-13)', 'x86_64', '')  Threads 12
Python 2.7.15 (default, Oct 25 2018, 01:35:55) 
[GCC 8.2.0]
numpy 1.15.3  scipy 1.1.0
Date: Tue Apr  2 11:38:54 2019
PySCF version 1.6.1
PySCF path  /home/jluis/src/pyscf/dev/pyscf
GIT ORIG_HEAD 4c522b64567e2ee224629dc3b97e6ab7eb8dbc91
GIT HEAD      ref: refs/heads/dev
GIT dev branch  efb4b7082c70842c74661e5fcb0f375a0c5c7506

[ENV] PYSCF_TMPDIR /scratch-ssd/jluis
[CONFIG] conf_file None
[INPUT] verbose = 4
[INPUT] num. atoms = 2
[INPUT] num. electrons = 2
[INPUT] charge = 0
[INPUT] spin (= nelec alpha-beta = 2S) = 0
[INPUT] symmetry 1 subgroup None
[INPUT] Mole.unit = angstrom
[INPUT]  1 H      0.000000000000   0.000000000000  -1.000000000000 AA    0.000000000000   0.000000000000  -1.889726124565 Bohr
[INPUT]  2 H      0.000000000000   0.000000000000   1.000000000000 AA    0.000000000000   0.000000000000   1.889726124565 Bohr

nuclear repulsion = 0.26458860546
point group symmetry = Dooh
num. orbitals of irrep A1g = 5
num. orbitals of irrep E1gx = 2
num. orbitals of irrep E1gy = 2
num. orbitals of irrep A1u = 5
num. orbitals of irrep E1uy = 2
num. orbitals of irrep E1ux = 2
number of shells = 10
number of NR pGTOs = 22
number of NR cGTOs = 18
basis = aug-cc-pvdz
ecp = {}
CPU time:         0.35


******** <class 'pyscf.scf.hf_symm.SymAdaptedRHF'> ********
method = SymAdaptedRHF-RHF
initial guess = minao
damping factor = 0
level shift factor = 0.5
DIIS = <class 'pyscf.scf.diis.CDIIS'>
DIIS start cycle = 1
DIIS space = 8
SCF tol = 1e-09
SCF gradient tol = None
max. SCF cycles = 150
direct_scf = True
direct_scf_tol = 1e-13
chkfile to save SCF result = h2.chk
max_memory 60000 MB (current use 65 MB)
Freeze 0 electrons in irreps []
    2 free electrons in irreps A1g E1gx E1gy A1u E1uy E1ux
Set gradient conv threshold to 3.16228e-05
init E= -0.659198508297056
HOMO (A1g) = -0.046091910391949  LUMO (A1u) = 0.203728846394349
cycle= 1 E= -0.920026913414033  delta_E= -0.261  |g|= 0.0873  |ddm|= 0.722
HOMO (A1g) = -0.382357338802351  LUMO (A1u) = 0.457126417074789
cycle= 2 E= -0.923747626534293  delta_E= -0.00372  |g|= 0.0417  |ddm|= 0.0726
HOMO (A1g) = -0.388570432313928  LUMO (A1u) = 0.453891711576758
cycle= 3 E= -0.924829150182511  delta_E= -0.00108  |g|= 0.0156  |ddm|= 0.0428
HOMO (A1g) = -0.387975935381274  LUMO (A1u) = 0.45438424055704
cycle= 4 E= -0.92501301586053  delta_E= -0.000184  |g|= 0.0065  |ddm|= 0.0192
HOMO (A1g) = -0.388572235442623  LUMO (A1u) = 0.454085121640529
cycle= 5 E= -0.925050079849155  delta_E= -3.71e-05  |g|= 0.00288  |ddm|= 0.0107
HOMO (A1g) = -0.388953970084077  LUMO (A1u) = 0.454001936513139
cycle= 6 E= -0.925057720941673  delta_E= -7.64e-06  |g|= 0.00137  |ddm|= 0.00513
HOMO (A1g) = -0.388414999825766  LUMO (A1u) = 0.454009608984882
cycle= 7 E= -0.92505962990807  delta_E= -1.91e-06  |g|= 0.00066  |ddm|= 0.00267
HOMO (A1g) = -0.388412134137613  LUMO (A1u) = 0.454015392249912
cycle= 8 E= -0.925060089608251  delta_E= -4.6e-07  |g|= 0.000325  |ddm|= 0.00133
HOMO (A1g) = -0.388412467872961  LUMO (A1u) = 0.454015332888104
cycle= 9 E= -0.925060203750966  delta_E= -1.14e-07  |g|= 0.000163  |ddm|= 0.000669
HOMO (A1g) = -0.388412748049499  LUMO (A1u) = 0.45401524444186
cycle= 10 E= -0.925060232746208  delta_E= -2.9e-08  |g|= 8.22e-05  |ddm|= 0.000336
HOMO (A1g) = -0.388412768574013  LUMO (A1u) = 0.454015243860683
cycle= 11 E= -0.925060240226521  delta_E= -7.48e-09  |g|= 4.18e-05  |ddm|= 0.00017
HOMO (A1g) = -0.388412779320512  LUMO (A1u) = 0.454015239202534
cycle= 12 E= -0.925060242174394  delta_E= -1.95e-09  |g|= 2.14e-05  |ddm|= 8.57e-05
HOMO (A1g) = -0.388412781764902  LUMO (A1u) = 0.454015257241124
cycle= 13 E= -0.925060242684877  delta_E= -5.1e-10  |g|= 1.1e-05  |ddm|= 4.35e-05
HOMO (A1g) = -0.388410983453139  LUMO (A1u) = -0.0459825678733854
Extra cycle  E= -0.925060242849961  delta_E= -1.65e-10  |g|= 3.36e-06  |ddm|= 3.1e-05
converged SCF energy = -0.925060242849961
Active space CI wfn symmetry = A1g

******** CASCI flags ********
CAS (1e+1e, 18o), ncore = 0, nvir = 0
natorb = False
canonicalization = True
sorting_mo_energy = False
max_memory 60000 (MB)
******** <class 'pyscf.fci.direct_spin1_symm.FCISolver'> ********
max. cycles = 200
conv_tol = 1e-08
davidson only = True
linear dependence = 1e-10
level shift = 0.001
max iter space = 12
max_memory 60000 MB
nroots = 1
pspace_size = 0
spin = None
Input CI wfn symmetry = A1g
Density matrix diagonal elements [1.56731728e+00 3.59971671e-01 4.36991680e-03 4.28409954e-02
 1.23173769e-03 1.23173769e-03 3.27279769e-03 2.15092540e-05
 2.15092540e-05 8.85091512e-03 5.32048376e-03 4.95948575e-03
 9.86116501e-05 9.86116501e-05 2.48091083e-05 2.48091083e-05
 1.96457545e-04 1.46666734e-04]
CASCI converged
CASCI E = -1.01935277231744  E(CI) = -1.28394137777744  S^2 = 0.0000000
