From PySCF
GAUSSIAN             11 MOL ORBITALS     74 PRIMITIVES        2 NUCLEI
  N    1    (CENTRE  1)   0.00000000  0.00000000  1.03708170  CHARGE = 7.0
  N    2    (CENTRE  2)   0.00000000  0.00000000 -1.03708170  CHARGE = 7.0
CENTRE ASSIGNMENTS    1  1  1  1  1  1  1  1  1  1  1  1  1  1  1  1  1  1  1  1
CENTRE ASSIGNMENTS    1  1  1  1  1  1  1  1  1  1  1  1  1  1  1  1  1  2  2  2
CENTRE ASSIGNMENTS    2  2  2  2  2  2  2  2  2  2  2  2  2  2  2  2  2  2  2  2
CENTRE ASSIGNMENTS    2  2  2  2  2  2  2  2  2  2  2  2  2  2
TYPE ASSIGNMENTS      1  1  1  1  1  1  1  1  1  1  2  2  2  3  3  3  4  4  4  2
TYPE ASSIGNMENTS      3  4  2  3  4  5  8  9  6 10  7  5  8  9  6 10  7  1  1  1
TYPE ASSIGNMENTS      1  1  1  1  1  1  1  2  2  2  3  3  3  4  4  4  2  3  4  2
TYPE ASSIGNMENTS      3  4  5  8  9  6 10  7  5  8  9  6 10  7
EXPONENTS  9.0460000E+03 1.3570000E+03 3.0930000E+02 8.7730000E+01 2.8560000E+01
EXPONENTS  1.0210000E+01 3.8380000E+00 7.4660000E-01 2.2480000E-01 6.1240000E-02
EXPONENTS  1.3550000E+01 2.9170000E+00 7.9730000E-01 1.3550000E+01 2.9170000E+00
EXPONENTS  7.9730000E-01 1.3550000E+01 2.9170000E+00 7.9730000E-01 2.1850000E-01
EXPONENTS  2.1850000E-01 2.1850000E-01 5.6110000E-02 5.6110000E-02 5.6110000E-02
EXPONENTS  8.1700000E-01 8.1700000E-01 8.1700000E-01 8.1700000E-01 8.1700000E-01
EXPONENTS  8.1700000E-01 2.3000000E-01 2.3000000E-01 2.3000000E-01 2.3000000E-01
EXPONENTS  2.3000000E-01 2.3000000E-01 9.0460000E+03 1.3570000E+03 3.0930000E+02
EXPONENTS  8.7730000E+01 2.8560000E+01 1.0210000E+01 3.8380000E+00 7.4660000E-01
EXPONENTS  2.2480000E-01 6.1240000E-02 1.3550000E+01 2.9170000E+00 7.9730000E-01
EXPONENTS  1.3550000E+01 2.9170000E+00 7.9730000E-01 1.3550000E+01 2.9170000E+00
EXPONENTS  7.9730000E-01 2.1850000E-01 2.1850000E-01 2.1850000E-01 5.6110000E-02
EXPONENTS  5.6110000E-02 5.6110000E-02 8.1700000E-01 8.1700000E-01 8.1700000E-01
EXPONENTS  8.1700000E-01 8.1700000E-01 8.1700000E-01 2.3000000E-01 2.3000000E-01
EXPONENTS  2.3000000E-01 2.3000000E-01 2.3000000E-01 2.3000000E-01
MO  1                     OCC NO =   2.00000000 ORB. ENERGY = 0.0000
  3.28161126E-01  6.08964521E-01  1.02159151E+00  1.49528751E+00  1.74039418E+00
  1.29500483E+00  3.85683177E-01  6.05846660E-03 -8.90374831E-03 -1.09087624E-03
 -3.37934703E-16 -2.69586033E-16 -1.25198165E-16  6.56211461E-16  5.23490020E-16
  2.43113448E-16 -1.03757851E-02 -8.27724028E-03 -3.84402442E-03  2.87111139E-16
 -2.76461810E-16  3.24295984E-03 -9.82173906E-19  1.10492220E-17  9.72892781E-05
 -7.94821997E-04  2.41440085E-17 -1.09382660E-15 -7.94821997E-04  1.07028063E-15
  1.58964399E-03  2.37757115E-04  4.48450955E-18 -1.03402285E-16  2.37757115E-04
  6.25573660E-17 -4.75514230E-04 -3.28161126E-01 -6.08964521E-01 -1.02159151E+00
 -1.49528751E+00 -1.74039418E+00 -1.29500483E+00 -3.85683177E-01 -6.05846660E-03
  8.90374831E-03  1.09087624E-03 -3.58958698E-16 -2.86357839E-16 -1.32987142E-16
  4.60861491E-16  3.67650377E-16  1.70740123E-16 -1.03757851E-02 -8.27724028E-03
 -3.84402442E-03 -2.40898411E-16  1.56753704E-16  3.24295984E-03  9.00549725E-18
 -6.95451586E-19  9.72892781E-05  7.94821997E-04  1.66380947E-17 -8.85699425E-16
  7.94821997E-04  3.61941148E-16 -1.58964399E-03 -2.37757115E-04 -1.03913459E-17
 -1.51538436E-16 -2.37757115E-04  1.19697149E-16  4.75514230E-04
MO  2                     OCC NO =   2.00000000 ORB. ENERGY = 0.0000
 -3.29206760E-01 -6.10980442E-01 -1.02484817E+00 -1.50069071E+00 -1.74684593E+00
 -1.30297874E+00 -3.88789254E-01 -1.10005927E-03  3.48951621E-03  1.64001446E-04
  5.85921312E-16  4.67416341E-16  2.17072329E-16  1.37715412E-16  1.09861909E-16
  5.10208533E-17  2.28468664E-02  1.82259946E-02  8.46431493E-03 -5.44489170E-16
 -3.93974038E-16  6.53853570E-04  4.90854900E-18 -5.93554698E-18 -1.23244673E-06
  3.19342309E-04  2.80117957E-17 -7.52404638E-16  3.19342309E-04 -9.62566708E-17
 -6.38684618E-04 -1.14366621E-04  3.36381407E-18  3.26412519E-16 -1.14366621E-04
  2.80159154E-16  2.28733241E-04 -3.29206760E-01 -6.10980442E-01 -1.02484817E+00
 -1.50069071E+00 -1.74684593E+00 -1.30297874E+00 -3.88789254E-01 -1.10005927E-03
  3.48951621E-03  1.64001447E-04 -1.12290301E-15 -8.95791303E-16 -4.16013493E-16
 -7.58078958E-16 -6.04754402E-16 -2.80853353E-16 -2.28468664E-02 -1.82259946E-02
 -8.46431493E-03  5.83337189E-16  4.89385151E-16 -6.53853569E-04 -5.44423207E-19
  1.78425405E-18  1.23244682E-06  3.19342309E-04  1.00805142E-17 -3.85289137E-17
  3.19342309E-04 -2.24560837E-16 -6.38684618E-04 -1.14366621E-04 -9.86688893E-18
  2.24067964E-16 -1.14366621E-04  2.36967644E-16  2.28733241E-04
MO  3                     OCC NO =   1.99506891 ORB. ENERGY = 0.0000
 -5.93089432E-02 -1.13144136E-01 -1.84695313E-01 -2.96327105E-01 -3.51551401E-01
 -3.91168405E-01 -1.46361098E-01  2.02176176E-01  7.63283295E-02  3.05328274E-03
 -3.12790723E-15 -2.49527525E-15 -1.15882814E-15 -1.61228496E-15 -1.28619376E-15
 -5.97319886E-16  1.82567072E-01  1.45642138E-01  6.76375117E-02  1.55926281E-15
  1.44688379E-15  1.92908851E-02 -3.38989317E-18  7.69477760E-17  3.39906694E-04
 -4.54070940E-03  1.80144300E-17  1.45076084E-15 -4.54070940E-03  7.06418389E-16
  9.08141879E-03  1.32100014E-04 -2.13511083E-17 -9.25861382E-16  1.32100014E-04
 -1.18780407E-15 -2.64200029E-04 -5.93089432E-02 -1.13144136E-01 -1.84695313E-01
 -2.96327105E-01 -3.51551401E-01 -3.91168405E-01 -1.46361098E-01  2.02176176E-01
  7.63283295E-02  3.05328274E-03  1.96480256E-15  1.56741324E-15  7.27920726E-16
  4.98940499E-16  3.98027751E-16  1.84847648E-16 -1.82567072E-01 -1.45642138E-01
 -6.76375117E-02 -1.70182107E-15 -2.03557865E-15 -1.92908851E-02  5.06574570E-17
 -7.03228328E-17 -3.39906693E-04 -4.54070940E-03 -1.75426589E-16 -2.31384618E-16
 -4.54070940E-03  2.86896717E-16  9.08141879E-03  1.32100014E-04  1.56881978E-17
 -5.40142816E-16  1.32100014E-04 -9.02680005E-16 -2.64200029E-04
MO  4                     OCC NO =   1.98204812 ORB. ENERGY = 0.0000
  6.13883875E-02  1.17043193E-01  1.91169595E-01  3.06142565E-01  3.63062586E-01
  4.01424624E-01  1.49805302E-01 -2.04790207E-01 -1.44689748E-01 -1.43619120E-02
 -3.49637725E-15 -2.78922071E-15 -1.29533905E-15 -1.75231756E-14 -1.39790420E-14
 -6.49199212E-15 -4.61253255E-01 -3.67962906E-01 -1.70885265E-01 -8.07061506E-16
 -2.82070157E-16  3.15039491E-03 -2.26519416E-17 -4.59594744E-17  9.24513305E-04
 -7.28632541E-03 -8.69747716E-17  2.00217914E-15 -7.28632541E-03  1.00479189E-16
  1.45726508E-02  1.52803477E-03  4.23066409E-17  1.38894724E-16  1.52803477E-03
 -1.68245259E-16 -3.05606954E-03 -6.13883875E-02 -1.17043193E-01 -1.91169595E-01
 -3.06142565E-01 -3.63062586E-01 -4.01424624E-01 -1.49805302E-01  2.04790207E-01
  1.44689748E-01  1.43619120E-02 -5.07650834E-15 -4.04976386E-15 -1.88074656E-15
 -1.76173041E-14 -1.40541326E-14 -6.52686486E-15 -4.61253255E-01 -3.67962906E-01
 -1.70885265E-01  1.50925268E-16 -1.29840772E-15  3.15039491E-03  1.73620511E-17
  2.36602034E-17  9.24513305E-04  7.28632541E-03  4.88200950E-17  8.75824021E-16
  7.28632541E-03 -2.31295202E-15 -1.45726508E-02 -1.52803477E-03 -1.44359866E-17
  2.04820863E-16 -1.52803477E-03 -2.99631501E-16  3.05606954E-03
MO  5                     OCC NO =   1.98119473 ORB. ENERGY = 0.0000
 -2.70503300E-02 -5.12972670E-02 -8.42318853E-02 -1.32558290E-01 -1.56658962E-01
 -1.62781595E-01 -5.91299288E-02  7.19936606E-02 -2.49361655E-02 -4.65163171E-03
  7.94185959E-16  6.33558614E-16  2.94230287E-16  4.94237651E-15  3.94276073E-15
  1.83105335E-15 -1.07598681E+00 -8.58364098E-01 -3.98631964E-01  1.05524253E-15
  4.33219817E-16 -3.89019131E-02 -4.63239698E-17  9.87547378E-18  6.65652821E-05
 -1.96488638E-02  1.07435966E-17  6.25107960E-16 -1.96488638E-02 -4.59531749E-16
  3.92977277E-02 -2.36552798E-04 -2.81769087E-17 -6.16114082E-16 -2.36552798E-04
 -1.88975204E-16  4.73105596E-04 -2.70503300E-02 -5.12972670E-02 -8.42318853E-02
 -1.32558290E-01 -1.56658962E-01 -1.62781595E-01 -5.91299288E-02  7.19936606E-02
 -2.49361655E-02 -4.65163171E-03  1.41686195E-15  1.13029585E-15  5.24919503E-16
  4.74955945E-15  3.78894171E-15  1.75961842E-15  1.07598681E+00  8.58364098E-01
  3.98631964E-01 -9.03463233E-16 -1.00536640E-16  3.89019131E-02  2.21189624E-17
  7.27336049E-18 -6.65652820E-05 -1.96488638E-02 -8.81845798E-17  3.68701139E-16
 -1.96488638E-02  2.88216567E-16  3.92977277E-02 -2.36552798E-04  2.99005541E-17
 -5.22225702E-16 -2.36552798E-04 -9.26351486E-17  4.73105596E-04
MO  6                     OCC NO =   1.94224338 ORB. ENERGY = 0.0000
 -7.93266033E-17 -1.51023593E-16 -2.47026572E-16 -3.93734913E-16 -4.66506137E-16
 -5.07488540E-16 -1.88097964E-16  2.50095598E-16  3.74071631E-16 -1.36293155E-16
  8.97891987E-01  7.16289676E-01  3.32651332E-01 -3.53353410E-01 -2.81886243E-01
 -1.30910493E-01 -1.96579352E-16 -1.56820378E-16 -7.28287860E-17  4.63551889E-02
 -1.82359024E-02 -1.56100688E-16  3.34550724E-04 -1.31374313E-04  3.03032536E-17
 -3.55762616E-17 -2.64150592E-16 -7.45688022E-02  1.56467254E-17  2.93254456E-02
  1.99295362E-17  6.51258361E-18  1.50778425E-17 -2.73523160E-03  1.46213239E-18
  1.07466235E-03 -7.97471600E-18  1.65646004E-16  3.13133772E-16  5.15784368E-16
  8.03356568E-16  9.47429424E-16  9.46329106E-16  3.37459236E-16 -3.75549641E-16
 -5.34563071E-16  1.37027818E-16  8.97891987E-01  7.16289676E-01  3.32651332E-01
 -3.53353410E-01 -2.81886243E-01 -1.30910493E-01  1.75333227E-15  1.39871368E-15
  6.49575143E-16  4.63551889E-02 -1.82359024E-02 -7.39268414E-17  3.34550724E-04
 -1.31374313E-04  3.61401464E-18 -2.07405639E-17  2.62776559E-16  7.45688022E-02
 -5.00390655E-18 -2.93254456E-02  2.57444705E-17  2.06452253E-19 -1.18650483E-17
  2.73523160E-03  1.09809246E-17 -1.07466235E-03 -1.11873768E-17
MO  7                     OCC NO =   1.94224338 ORB. ENERGY = 0.0000
 -1.11101811E-15 -2.11941618E-15 -3.45984484E-15 -5.55032278E-15 -6.58453472E-15
 -7.32348538E-15 -2.73971030E-15  3.78192268E-15  2.84259943E-15 -2.25239752E-17
 -3.53353410E-01 -2.81886243E-01 -1.30910493E-01 -8.97891987E-01 -7.16289676E-01
 -3.32651332E-01  3.21341993E-15  2.56349266E-15  1.19050892E-15 -1.82359024E-02
 -4.63551889E-02 -5.98268242E-16 -1.31374313E-04 -3.34550724E-04 -5.86876972E-18
  1.78700876E-17 -9.86160445E-17  2.93254456E-02  1.82664727E-17  7.45688022E-02
 -3.61365603E-17 -4.34107978E-17 -1.54942559E-17  1.07466235E-03 -4.86535645E-17
  2.73523160E-03  9.20643623E-17  1.11595155E-15  2.12433714E-15  3.47511807E-15
  5.53700959E-15  6.55991265E-15  7.12733542E-15  2.64031240E-15 -3.50288028E-15
 -3.39464981E-15 -9.34581020E-17 -3.53353410E-01 -2.81886243E-01 -1.30910493E-01
 -8.97891987E-01 -7.16289676E-01 -3.32651332E-01  1.30883802E-14  1.04412020E-14
  4.84898759E-15 -1.82359024E-02 -4.63551889E-02 -1.54538515E-16 -1.31374313E-04
 -3.34550724E-04  1.69106772E-17 -2.62967804E-16 -3.64927356E-17 -2.93254456E-02
 -2.19634298E-16 -7.45688022E-02  4.82602103E-16  3.24353399E-17  3.19358951E-17
 -1.07466235E-03  4.82226009E-17 -2.73523160E-03 -8.06579408E-17
MO  8                     OCC NO =   0.06399279 ORB. ENERGY = 0.0000
  2.56870195E-17  4.91433548E-17  7.99953335E-17  1.29524596E-16  1.53938410E-16
  1.76548124E-16  6.68688499E-17 -9.67891449E-17  3.16101914E-16 -1.61479887E-16
  1.39243601E+00  1.11081016E+00  5.15870172E-01 -5.00509516E-01 -3.99279428E-01
 -1.85428938E-01 -7.44053972E-16 -5.93566025E-16 -2.75657371E-16  5.15156623E-02
 -1.86250670E-02 -9.13564203E-17 -8.12337137E-04  2.93556404E-04  6.91422298E-17
  2.01679485E-16 -1.09438745E-16 -2.41317990E-03  1.84574334E-17  7.76985901E-04
 -2.20136918E-16  5.14399741E-17  2.80069695E-17 -5.54625909E-03 -5.02680888E-17
  2.01104200E-03 -1.17188527E-18  5.58763007E-17  1.04489435E-16  1.73963396E-16
  2.61371036E-16  3.05940318E-16  2.61266942E-16  8.55592146E-17 -5.17075074E-17
 -3.54061624E-16  2.79473945E-16 -1.39243601E+00 -1.11081016E+00 -5.15870172E-01
  5.00509516E-01  3.99279428E-01  1.85428938E-01  1.58755011E-16  1.26646163E-16
  5.88156110E-17 -5.15156623E-02  1.86250670E-02 -1.75343598E-16  8.12337137E-04
 -2.93556404E-04 -1.12987390E-17  1.30989978E-16 -6.64454074E-16 -2.41317990E-03
 -6.35992229E-17  7.76985901E-04 -6.73907552E-17  5.04814398E-17 -4.87994891E-17
 -5.54625909E-03  1.41246690E-17  2.01104200E-03 -6.46061088E-17
MO  9                     OCC NO =   0.06399279 ORB. ENERGY = 0.0000
 -2.98436636E-17 -6.67582272E-17 -9.31339064E-17 -2.32168815E-16 -2.94751313E-16
 -6.97193101E-16 -3.17763905E-16  7.49063281E-16  4.87758938E-16  5.67443362E-16
 -5.00509516E-01 -3.99279428E-01 -1.85428938E-01 -1.39243601E+00 -1.11081016E+00
 -5.15870172E-01 -5.35855433E-16 -4.27476489E-16 -1.98523905E-16 -1.86250670E-02
 -5.15156623E-02 -5.02473591E-16  2.93556404E-04  8.12337137E-04 -6.52020301E-17
 -3.41364597E-17 -8.53768001E-17  7.76985901E-04 -1.08953911E-16  2.41317990E-03
  1.43090371E-16 -7.57327698E-17 -3.18167462E-17  2.01104200E-03 -1.45603684E-17
  5.54625909E-03  9.02931382E-17 -3.20385652E-17 -6.64651106E-17 -9.98792281E-17
 -2.05259576E-16 -2.54019520E-16 -4.83502755E-16 -2.11862329E-16  4.61360188E-16
 -9.40611237E-16 -5.17393094E-16  5.00509516E-01  3.99279428E-01  1.85428938E-01
  1.39243601E+00  1.11081016E+00  5.15870172E-01 -1.36368270E-15 -1.08787232E-15
 -5.05217634E-16  1.86250670E-02  5.15156623E-02 -4.12431852E-16 -2.93556404E-04
 -8.12337137E-04 -2.10774812E-17  2.61983626E-16 -8.94341491E-17  7.76985901E-04
  3.05829222E-16  2.41317990E-03 -5.67812848E-16  2.76684957E-17 -5.40485677E-17
  2.01104200E-03  1.50294783E-17  5.54625909E-03 -4.26979740E-17
MO  10                    OCC NO =   0.01977327 ORB. ENERGY = 0.0000
 -3.75061410E-02 -7.41098090E-02 -1.16850048E-01 -2.09026635E-01 -2.53012087E-01
 -3.77691862E-01 -1.56138503E-01  2.96454961E-01  2.51160167E-01  4.46850564E-02
  2.72560300E-16  2.17433869E-16  1.00978233E-16  7.09385599E-16  5.65909473E-16
  2.62813421E-16 -1.99316082E+00 -1.59003593E+00 -7.38426905E-01  2.24479977E-17
 -1.73560814E-16 -1.16369280E-01 -2.67617769E-17  2.21851835E-17 -4.03534568E-03
  8.57496210E-05 -2.01993204E-18  3.48965732E-17  8.57496210E-05 -3.74767587E-16
 -1.71499242E-04 -4.75315016E-03  7.54174281E-17 -1.34106343E-16 -4.75315016E-03
  2.77076969E-17  9.50630032E-03  3.75061410E-02  7.41098090E-02  1.16850048E-01
  2.09026635E-01  2.53012087E-01  3.77691862E-01  1.56138503E-01 -2.96454961E-01
 -2.51160167E-01 -4.46850564E-02 -1.99600151E-16 -1.59230208E-16 -7.39479327E-17
 -1.86266836E-15 -1.48593609E-15 -6.90082013E-16 -1.99316082E+00 -1.59003593E+00
 -7.38426905E-01  6.88918097E-17  3.14674325E-16 -1.16369280E-01 -5.57608742E-18
  1.81243106E-17 -4.03534568E-03 -8.57496211E-05 -8.89637328E-17  5.63913388E-16
 -8.57496211E-05 -1.69149256E-15  1.71499242E-04  4.75315016E-03 -4.99857428E-17
  2.37912613E-18  4.75315016E-03  3.45112647E-17 -9.50630032E-03
MO  11                    OCC NO =   0.00944265 ORB. ENERGY = 0.0000
 -1.91745444E-02 -4.35570899E-02 -5.98518433E-02 -1.54789706E-01 -1.97353735E-01
 -4.81809675E-01 -2.20684469E-01  5.25082796E-01 -1.36976311E-01 -1.93440512E-02
 -1.01867530E-15 -8.12644068E-16 -3.77399174E-16  1.09824038E-15  8.76116790E-16
  4.06876474E-16  6.86539302E-01  5.47683932E-01  2.54349317E-01  1.43588605E-15
  4.76280077E-16 -4.43264198E-02  5.11129886E-18 -7.54724761E-17 -1.44399463E-03
 -2.54032443E-02  3.63841158E-17  9.14335005E-16 -2.54032443E-02  1.93691944E-16
  5.08064887E-02 -1.19139199E-03 -5.18419970E-17 -7.70124497E-16 -1.19139199E-03
 -3.85231095E-16  2.38278397E-03 -1.91745444E-02 -4.35570899E-02 -5.98518433E-02
 -1.54789706E-01 -1.97353735E-01 -4.81809675E-01 -2.20684469E-01  5.25082796E-01
 -1.36976311E-01 -1.93440512E-02  7.23419933E-16  5.77105305E-16  2.68012865E-16
 -1.75553769E-15 -1.40047304E-15 -6.50392208E-16 -6.86539302E-01 -5.47683932E-01
 -2.54349317E-01 -1.49147839E-15 -2.70228032E-16  4.43264198E-02  7.84659381E-18
  9.38161476E-17  1.44399463E-03 -2.54032443E-02 -4.84395872E-16  1.00567207E-15
 -2.54032443E-02 -4.08012267E-16  5.08064887E-02 -1.19139199E-03 -3.48832554E-17
 -5.54648991E-16 -1.19139199E-03 -5.49090251E-16  2.38278397E-03
END DATA
ALDET
From PySCF
CANMO 1
  3.28161126E-01  6.08964521E-01  1.02159151E+00  1.49528751E+00  1.74039418E+00
  1.29500483E+00  3.85683177E-01  6.05846660E-03 -8.90374831E-03 -1.09087624E-03
 -3.37934703E-16 -2.69586033E-16 -1.25198165E-16  6.56211461E-16  5.23490020E-16
  2.43113448E-16 -1.03757851E-02 -8.27724028E-03 -3.84402442E-03  2.87111139E-16
 -2.76461810E-16  3.24295984E-03 -9.82173906E-19  1.10492220E-17  9.72892781E-05
 -7.94821997E-04  2.41440085E-17 -1.09382660E-15 -7.94821997E-04  1.07028063E-15
  1.58964399E-03  2.37757115E-04  4.48450955E-18 -1.03402285E-16  2.37757115E-04
  6.25573660E-17 -4.75514230E-04 -3.28161126E-01 -6.08964521E-01 -1.02159151E+00
 -1.49528751E+00 -1.74039418E+00 -1.29500483E+00 -3.85683177E-01 -6.05846660E-03
  8.90374831E-03  1.09087624E-03 -3.58958698E-16 -2.86357839E-16 -1.32987142E-16
  4.60861491E-16  3.67650377E-16  1.70740123E-16 -1.03757851E-02 -8.27724028E-03
 -3.84402442E-03 -2.40898411E-16  1.56753704E-16  3.24295984E-03  9.00549725E-18
 -6.95451586E-19  9.72892781E-05  7.94821997E-04  1.66380947E-17 -8.85699425E-16
  7.94821997E-04  3.61941148E-16 -1.58964399E-03 -2.37757115E-04 -1.03913459E-17
 -1.51538436E-16 -2.37757115E-04  1.19697149E-16  4.75514230E-04
CANMO 2
 -3.29206760E-01 -6.10980442E-01 -1.02484817E+00 -1.50069071E+00 -1.74684593E+00
 -1.30297874E+00 -3.88789254E-01 -1.10005927E-03  3.48951621E-03  1.64001446E-04
  5.85921312E-16  4.67416341E-16  2.17072329E-16  1.37715412E-16  1.09861909E-16
  5.10208533E-17  2.28468664E-02  1.82259946E-02  8.46431493E-03 -5.44489170E-16
 -3.93974038E-16  6.53853570E-04  4.90854900E-18 -5.93554698E-18 -1.23244673E-06
  3.19342309E-04  2.80117957E-17 -7.52404638E-16  3.19342309E-04 -9.62566708E-17
 -6.38684618E-04 -1.14366621E-04  3.36381407E-18  3.26412519E-16 -1.14366621E-04
  2.80159154E-16  2.28733241E-04 -3.29206760E-01 -6.10980442E-01 -1.02484817E+00
 -1.50069071E+00 -1.74684593E+00 -1.30297874E+00 -3.88789254E-01 -1.10005927E-03
  3.48951621E-03  1.64001447E-04 -1.12290301E-15 -8.95791303E-16 -4.16013493E-16
 -7.58078958E-16 -6.04754402E-16 -2.80853353E-16 -2.28468664E-02 -1.82259946E-02
 -8.46431493E-03  5.83337189E-16  4.89385151E-16 -6.53853569E-04 -5.44423207E-19
  1.78425405E-18  1.23244682E-06  3.19342309E-04  1.00805142E-17 -3.85289137E-17
  3.19342309E-04 -2.24560837E-16 -6.38684618E-04 -1.14366621E-04 -9.86688893E-18
  2.24067964E-16 -1.14366621E-04  2.36967644E-16  2.28733241E-04
CANMO 3
 -6.40146370E-02 -1.21981910E-01 -1.99346625E-01 -3.18660581E-01 -3.77773133E-01
 -4.15109778E-01 -1.54512306E-01  2.09038607E-01  4.64081228E-02 -3.66987206E-04
 -2.07390627E-15 -1.65445028E-15 -7.68341508E-16  1.59849181E-15  1.27519033E-15
  5.92209794E-16 -4.79051084E-01 -3.82161051E-01 -1.77479010E-01  1.89015906E-15
  1.42880564E-15 -7.44311777E-03 -2.98792938E-17  6.76805661E-17  3.05957086E-04
 -1.53475289E-02  2.11036141E-17  1.54701444E-15 -1.53475289E-02  3.03882840E-16
  3.06950579E-02 -3.86404240E-05 -3.41188161E-17 -1.11572232E-15 -3.86404240E-05
 -1.07519728E-15  7.72808479E-05 -6.40146370E-02 -1.21981910E-01 -1.99346625E-01
 -3.18660581E-01 -3.77773133E-01 -4.15109778E-01 -1.54512306E-01  2.09038607E-01
  4.64081228E-02 -3.66987205E-04  2.42655081E-15  1.93577102E-15  8.98989377E-16
  3.17894973E-15  2.53599420E-15  1.17773839E-15  4.79051084E-01  3.82161051E-01
  1.77479010E-01 -1.91695823E-15 -1.70938373E-15  7.44311777E-03  5.40491933E-17
 -5.21518161E-17 -3.05957086E-04 -1.53475289E-02 -1.96627995E-16  3.46251387E-17
 -1.53475289E-02  3.99019421E-16  3.06950579E-02 -3.86404240E-05  3.00375822E-17
 -7.46974657E-16 -3.86404240E-05 -7.88703806E-16  7.72808481E-05
CANMO 4
  6.10830043E-02  1.16439914E-01  1.90218179E-01  3.04441801E-01  3.61004176E-01
  3.98356465E-01  1.48537447E-01 -2.02385579E-01 -1.42653462E-01 -1.39999992E-02
  1.33104269E-15  1.06183389E-15  4.93125154E-16 -5.25585095E-15 -4.19283369E-15
 -1.94718947E-15 -4.77360196E-01 -3.80812152E-01 -1.76852569E-01 -5.57839181E-16
  3.49530698E-16  2.20901858E-03 -2.10737293E-17 -4.12101209E-17  8.91842462E-04
 -7.28539344E-03 -8.69882649E-17  1.60195196E-15 -7.28539344E-03 -9.20817239E-16
  1.45707869E-02  1.48953810E-03  4.29152839E-17  1.23130740E-16  1.48953810E-03
 -2.05366133E-16 -2.97907619E-03 -6.10830043E-02 -1.16439914E-01 -1.90218179E-01
 -3.04441801E-01 -3.61004176E-01 -3.98356465E-01 -1.48537447E-01  2.02385579E-01
  1.42653462E-01  1.39999992E-02 -2.52855860E-16 -2.01714732E-16 -9.36781259E-17
 -5.37078084E-15 -4.28451854E-15 -1.98976873E-15 -4.77360196E-01 -3.80812152E-01
 -1.76852569E-01  4.00491923E-16 -6.62824436E-16  2.20901858E-03  1.91103185E-17
  2.83744323E-17  8.91842462E-04  7.28539344E-03  4.80988992E-17  1.28080063E-15
  7.28539344E-03 -1.30829652E-15 -1.45707869E-02 -1.48953810E-03 -1.48398328E-17
  2.19508104E-16 -1.48953810E-03 -2.61992052E-16  2.97907619E-03
CANMO 5
  1.32835477E-02  2.57457512E-02  4.13747106E-02  6.97895795E-02  8.35911758E-02
  1.08216693E-01  4.28340140E-02 -7.19401988E-02 -6.18701559E-02 -5.12427296E-03
  2.49937067E-15  1.99386277E-15  9.25967704E-16  4.92330777E-15  3.92754872E-15
  1.82398875E-15 -9.93815940E-01 -7.92812619E-01 -3.68189271E-01 -9.14069093E-17
 -5.07851390E-16 -4.18223110E-02 -3.56455246E-17 -3.54149335E-17 -1.13015102E-04
 -1.26840074E-02 -2.67145488E-18 -3.64511940E-16 -1.26840074E-02 -7.90565160E-16
  2.53680148E-02 -2.42361386E-04 -9.14636795E-18  6.09098647E-17 -2.42361386E-04
  5.51775139E-16  4.84722772E-04  1.32835477E-02  2.57457512E-02  4.13747106E-02
  6.97895795E-02  8.35911758E-02  1.08216693E-01  4.28340140E-02 -7.19401988E-02
 -6.18701559E-02 -5.12427296E-03 -2.02900863E-17 -1.61863337E-17 -7.51707814E-18
  3.59352908E-15  2.86672319E-15  1.33133189E-15  9.93815940E-01  7.92812619E-01
  3.68189271E-01  2.99135562E-16  1.11773694E-15  4.18223110E-02 -1.19531717E-17
  4.50104424E-17  1.13015102E-04 -1.26840074E-02  4.22380836E-17  4.11737791E-16
 -1.26840074E-02  7.43969048E-17  2.53680148E-02 -2.42361386E-04  1.58016826E-17
 -9.39514954E-17 -2.42361386E-04  4.66347038E-16  4.84722772E-04
CANMO 6
 -2.92139375E-16 -5.58140901E-16 -9.09774328E-16 -1.46659363E-15 -1.74153237E-15
 -1.96876666E-15 -7.41415228E-16  1.05017402E-15  9.12549667E-16 -2.14100194E-16
 -3.53349776E-01 -2.81883345E-01 -1.30909147E-01 -8.97893417E-01 -7.16290817E-01
 -3.32651862E-01 -2.93953591E-15 -2.34500280E-15 -1.08904027E-15 -1.82357149E-02
 -4.63552627E-02 -5.56252430E-16 -1.31372959E-04 -3.34551256E-04  6.46349493E-18
 -7.93249412E-17 -9.86171135E-17  2.93251439E-02 -7.89283488E-17  7.45689208E-02
  1.58253290E-16 -2.30280896E-17 -1.54941949E-17  1.07465128E-03 -2.82708768E-17
  2.73523595E-03  5.12989664E-17  2.97073157E-16  5.63062519E-16  9.25048653E-16
  1.45328210E-15  1.71691224E-15  1.77261847E-15  6.42017938E-16 -7.71132134E-16
 -1.46460070E-15  9.81181194E-17 -3.53349776E-01 -2.81883345E-01 -1.30909147E-01
 -8.97893417E-01 -7.16290817E-01 -3.32651862E-01  6.93543225E-15  5.53271283E-15
  2.56944132E-15 -1.82357149E-02 -4.63552627E-02 -1.12522370E-16 -1.31372959E-04
 -3.34551256E-04  2.92428339E-17 -1.65773003E-16 -3.64916722E-17 -2.93251439E-02
 -1.22439434E-16 -7.45689208E-02  2.88212437E-16  1.20526590E-17  3.19358470E-17
 -1.07465128E-03  2.78399635E-17 -2.73523595E-03 -3.98926225E-17
CANMO 7
 -8.29409748E-17 -1.58164097E-16 -2.58287089E-16 -4.13867542E-16 -4.90873035E-16
 -5.43821068E-16 -2.03113080E-16  2.78580535E-16  3.98195196E-16 -1.32003300E-16
  8.97893417E-01  7.16290817E-01  3.32651862E-01 -3.53349776E-01 -2.81883345E-01
 -1.30909147E-01 -3.87527467E-16 -3.09148458E-16 -1.43571309E-16  4.63552627E-02
 -1.82357149E-02 -1.67257024E-16  3.34551256E-04 -1.31372959E-04  2.99160223E-17
 -3.55654125E-17 -2.64150193E-16 -7.45689208E-02  1.56575730E-17  2.93251439E-02
  1.99078395E-17  6.05645689E-18  1.50779052E-17 -2.73523595E-03  1.00602688E-18
  1.07465128E-03 -7.06248377E-18  1.69260356E-16  3.20274256E-16  5.27044823E-16
  8.23489251E-16  9.71796421E-16  9.82662427E-16  3.52474754E-16 -4.04035707E-16
 -5.58684402E-16  1.32738432E-16  8.97893417E-01  7.16290817E-01  3.32651862E-01
 -3.53349776E-01 -2.81883345E-01 -1.30909147E-01  1.56234420E-15  1.24635372E-15
  5.78817815E-16  4.63552627E-02 -1.82357149E-02 -8.50849723E-17  3.34551256E-04
 -1.31372959E-04  3.22669116E-18 -2.07504213E-17  2.62776707E-16  7.45689208E-02
 -5.01393924E-18 -2.93251439E-02  2.57643605E-17  6.62623386E-19 -1.18651775E-17
  2.73523595E-03  1.14370318E-17 -1.07465128E-03 -1.20996552E-17
CANMO 8
 -3.23993481E-17 -7.15931750E-17 -1.01091807E-16 -2.44595049E-16 -3.09413614E-16
 -7.11983829E-16 -3.23063222E-16  7.55103554E-16  4.51487878E-16  5.81367796E-16
 -6.45347175E-01 -5.14823080E-01 -2.39088443E-01 -1.33150848E+00 -1.06220547E+00
 -4.93297721E-01 -4.53931324E-16 -3.62121865E-16 -1.68172633E-16 -2.39829875E-02
 -4.92501055E-02 -4.89952527E-16  3.78044838E-04  7.76626735E-04 -7.21665183E-17
 -5.53309270E-17 -7.32900464E-17  1.02850864E-03 -1.10296870E-16  2.31717809E-03
  1.65627797E-16 -8.07606572E-17 -3.46073226E-17  2.58785142E-03 -9.14762695E-18
  5.30172659E-03  8.99082841E-17 -3.77832731E-17 -7.71708445E-17 -1.17763867E-16
 -2.31819096E-16 -2.85030419E-16 -5.08482338E-16 -2.19740787E-16  4.64242051E-16
 -8.97761320E-16 -5.44112331E-16  6.45347175E-01  5.14823080E-01  2.39088443E-01
  1.33150848E+00  1.06220547E+00  4.93297721E-01 -1.37282851E-15 -1.09516835E-15
 -5.08605977E-16  2.39829875E-02  4.92501055E-02 -3.91512139E-16 -3.78044838E-04
 -7.76626735E-04 -1.97604677E-17  2.46615675E-16 -1.84683362E-17  1.02850864E-03
  3.10849109E-16  2.31717809E-03 -5.57464784E-16  2.21592183E-17 -4.85689051E-17
  2.58785142E-03  1.34468934E-17  5.30172659E-03 -3.56061117E-17
CANMO 9
  2.23774322E-17  4.17869299E-17  6.96679580E-17  1.04174094E-16  1.21813735E-16
  1.01619326E-16  3.27947706E-17 -1.68095407E-17  3.66043574E-16 -1.00395265E-16
  1.33150848E+00  1.06220547E+00  4.93297721E-01 -6.45347175E-01 -5.14823080E-01
 -2.39088443E-01 -7.96682943E-16 -6.35550573E-16 -2.95155371E-16  4.92501055E-02
 -2.39829875E-02 -1.44125732E-16 -7.76626735E-04  3.78044838E-04  6.18380652E-17
  1.96922322E-16 -1.17875383E-16 -2.31717809E-03  6.79942425E-18  1.02850864E-03
 -2.03721746E-16  4.31189009E-17  2.44750669E-17 -5.30172659E-03 -5.15286911E-17
  2.58785142E-03  8.40979018E-18  5.21637318E-17  9.68520195E-17  1.62390870E-16
  2.38130675E-16  2.77277939E-16  2.08521080E-16  6.26100008E-17 -2.49135726E-18
 -4.51811625E-16  2.23031546E-16 -1.33150848E+00 -1.06220547E+00 -4.93297721E-01
  6.45347175E-01  5.14823080E-01  2.39088443E-01  1.32491549E-17  1.05694593E-17
  4.90855145E-18 -4.92501055E-02  2.39829875E-02 -2.18090932E-16  7.76626735E-04
 -3.78044838E-04 -1.34701756E-17  1.58033235E-16 -6.70191468E-16 -2.31717809E-03
 -3.08091841E-17  1.02850864E-03 -1.27224051E-16  5.31308805E-17 -5.42558685E-17
 -5.30172659E-03  1.56388155E-17  2.58785142E-03 -6.87696960E-17
CANMO 10
 -1.85096693E-02 -4.22823246E-02 -5.77812131E-02 -1.51413853E-01 -1.93336210E-01
 -4.77099729E-01 -2.18885242E-01  5.22396119E-01 -1.38667610E-01 -1.94617491E-02
 -9.50943400E-16 -7.58611224E-16 -3.52305838E-16  1.19939355E-15  9.56811322E-16
  4.44351736E-16  6.67273937E-01  5.32315065E-01  2.47211877E-01  1.42321804E-15
  4.56723373E-16 -4.52307736E-02  4.48902093E-18 -7.66792235E-17 -1.44869107E-03
 -2.56044923E-02  3.62111756E-17  8.97414525E-16 -2.56044923E-02  1.74283920E-16
  5.12089846E-02 -1.19690868E-03 -5.18618454E-17 -7.62470517E-16 -1.19690868E-03
 -3.66726246E-16  2.39381735E-03 -1.85096693E-02 -4.22823246E-02 -5.77812131E-02
 -1.51413853E-01 -1.93336210E-01 -4.77099729E-01 -2.18885242E-01  5.22396119E-01
 -1.38667610E-01 -1.94617491E-02  7.09029454E-16  5.65625359E-16  2.62681476E-16
 -1.69410641E-15 -1.35146649E-15 -6.27633125E-16 -6.67273937E-01 -5.32315065E-01
 -2.47211877E-01 -1.47402090E-15 -2.35335188E-16  4.52307736E-02  7.26648934E-18
  9.51520903E-17  1.44869107E-03 -2.56044923E-02 -4.82435224E-16  1.01495260E-15
 -2.56044923E-02 -4.08780049E-16  5.12089846E-02 -1.19690868E-03 -3.47138974E-17
 -5.52549932E-16 -1.19690868E-03 -5.34209054E-16  2.39381735E-03
CANMO 11
 -3.80014648E-02 -7.50541090E-02 -1.18392534E-01 -2.11496085E-01 -2.55940505E-01
 -3.80926499E-01 -1.57345121E-01  2.98101744E-01  2.52322299E-01  4.47997634E-02
  2.62415477E-16  2.09340878E-16  9.72197760E-17  7.53480715E-16  6.01086172E-16
  2.79149794E-16 -1.98936469E+00 -1.58700758E+00 -7.37020513E-01  2.69926945E-17
 -1.76313408E-16 -1.16390955E-01 -2.65919604E-17  2.25198358E-17 -4.04269176E-03
  1.44683533E-04 -1.31635531E-18  2.18887496E-17  1.44683533E-04 -3.67460774E-16
 -2.89367067E-04 -4.76535444E-03  7.50727562E-17 -1.35108592E-16 -4.76535444E-03
  2.93650525E-17  9.53070889E-03  3.80014648E-02  7.50541090E-02  1.18392534E-01
  2.11496085E-01  2.55940505E-01  3.80926499E-01  1.57345121E-01 -2.98101744E-01
 -2.52322299E-01 -4.47997634E-02 -1.96948361E-16 -1.57114753E-16 -7.29654966E-17
 -1.81772772E-15 -1.45008489E-15 -6.73432392E-16 -1.98936469E+00 -1.58700758E+00
 -7.37020513E-01  6.56861435E-17  3.20126582E-16 -1.16390955E-01 -5.73062414E-18
  1.78959649E-17 -4.04269176E-03 -1.44683533E-04 -8.93557123E-17  5.53622390E-16
 -1.44683533E-04 -1.68083581E-15  2.89367067E-04  4.76535444E-03 -4.98673396E-17
  6.05480474E-19  4.76535444E-03  3.66363766E-17 -9.53070889E-03
END DATA
NELACTIVE, NDETS, NORBCORE, NORBACTIVE
    10  1149     2     9
COEFFICIENT/ OCCUPIED ACTIVE SPIN ORBITALS
 -1.0514736664E-02   1   2   3   4   9  -1  -2  -3  -4  -9
  1.3011149501E-03   1   2   3   4   9  -2  -3  -4  -5  -6
  2.4243826457E-04   1   2   3   4   9  -1  -4  -5  -7  -9
 -6.0918514879E-04   1   2   3   4   9  -1  -2  -4  -5  -7
  1.5871867695E-04   1   2   3   4   9  -3  -4  -5  -7  -9
 -1.6996049983E-02   1   2   3   4   9  -2  -3  -4  -5  -7
  5.6175981986E-04   1   2   3   4   9  -2  -5  -6  -7  -9
  2.1703742908E-04   1   2   3   4   9  -1  -3  -5  -6  -7
  3.7840016413E-04   1   2   3   4   9  -1  -2  -4  -8  -9